MP ID,Formula,Energy Above Hull (eV),Band Gap (eV)
mp-770386,LiMnAlO4,0.045655013,1.2451
mp-770905,LiMnAsCO7,0.047601954,1.1502
mp-20052,LiMnAsO4,0,1.6879
mp-768442,LiMnB2O5,0.043875975,1.2318
mp-778282,LiMnB3(HO3)3,0.09587038,1.5952
mp-19131,LiMnBO3,0.000671547,2.5636
mp-1176642,LiMnBO4,0.06230121,1.0745
mp-766498,LiMnCO3F2,0.045005299,1.2612
mp-1296423,LiMnCo3O8,0.023008654,0.8042
mp-758472,LiMnCO4,0.019551171,0.7425
mp-1176640,LiMnCrO4,0.07324417,1.3136
mp-754499,LiMnCSO7,0.046336087,0.9704
mp-777355,LiMnF3,0.021236209,3.5243
mp-558059,LiMnF4,0,0.6967
mp-1176620,LiMnF5,0.015870869,1.0972
mp-22200,LiMnFeF6,0,2.4344
mp-756289,LiMnFeO4,0.064540288,1.1417
mp-504460,LiMnGaF6,0,3.7836
mp-1197533,LiMnH2OF4,0.007099088,1.9511
mp-1176828,LiMnH4(SO5)2,0.025113253,1.0455
mp-23785,LiMnH6O7,0.07241318,2.1661
mp-831237,LiMnH8(SO6)2,0.036560762,1.1821
mp-943469,LiMnHSO5,0.003430216,3.3221
mp-771705,LiMnNbO4,0,2.3617
mp-754656,LiMnO2,0,1.1504
mp-776488,LiMnOF2,0.02792588,0.9908
mp-850407,LiMnP(H6O5)2,0.03791768,4.1674
mp-755468,LiMnP2(HO4)2,0.01124436,1.0886
mp-778069,LiMnP2H5O9,0.084266616,3.812
mp-754235,LiMnP2HO7,0.027115932,3.7928
mp-31924,LiMnP2O7,0,0.9788
mp-1204876,LiMnP3(H5O7)2,0.033185965,4.0589
mp-780095,LiMnP3(HO5)2,0.079169545,3.7991
mp-780729,LiMnP3H8O13,0.045671716,4.3195
mp-849312,LiMnP3HO10,0.033186493,3.7843
mp-780204,LiMnP4(H2O7)2,0.012450134,1.5253
mp-756529,LiMnPCO7,0.019285225,0.9189
mp-758824,LiMnPH2O5,0.021394246,3.7507
mp-755477,LiMnPHO5,0.000604488,1.4454
mp-18997,LiMnPO4,0,3.4115
mp-25410,LiMnPO4F,0,0.8695
mp-757358,LiMnPO5,0.025989117,0.9972
mp-755701,LiMnSbO4,0,1.3797
mp-757876,LiMnSi3O8,0.087971508,1.4877
mp-1662331,LiMnSiO4,0.024910235,1.2118
mp-755934,LiMnSnO4,0.001761424,0.7552
mp-942702,LiMnSO4F,0.012402999,3.9043
mp-759232,LiMnV(P2O7)2,0,1.3469
mp-768529,LiMnV(PO4)3,0.042009673,0.8234
mp-1193542,LiMnVF6,0.004805527,2.3554
mp-19107,LiMnVO4,0,1.9637
mp-760191,LiMnVP2(HO5)2,0.041077901,1.0013
mp-25987,LiMo(PO3)4,0.004660258,4.4002
mp-695791,LiMo(PO3)5,0.03718511,1.6246
mp-25983,LiMo(PO4)2,0.011804772,2.986
mp-585265,LiMo2(PO4)3,0,1.3906
mp-559600,LiMo2AsO9,0.015180738,2.5915
mp-26009,LiMo2P2O11,0.011801746,1.0138
mp-1012668,LiMo2P2O9,0.020993367,1.5289
mp-25827,LiMo2P3O11,0.028421134,3.1175
mp-26193,LiMo2P3O13,0.026045299,2.3002
mp-32123,LiMo2PO8,0.029286038,1.1268
mp-1013898,LiMo3P3O13,0.01901668,0.8797
mp-17314,LiMo3P3O16,0.022242326,1.6483
mp-585332,LiMo4P7O24,0.009450139,3.4073
mp-680167,LiMo6Cl13,0.011277085,2.358
mp-26051,LiMo8(P2O11)4,0.009544453,2.3855
mp-555962,LiMoAsO6,0.021899744,2.4743
mp-558917,LiMoIO6,0,2.2334
mp-35899,LiMoO2,0.058170717,1.8314
mp-18987,LiMoP2O7,0,1.5361
mp-1222468,LiMoP2WO11,0.011562569,2.469
mp-26401,LiMoP4O13,0.038515209,1.267
mp-504194,LiMoPO5,0.006334647,1.3988
mp-30248,LiMoS2,0.022671608,1.0287
mp-2659,LiN3,0,3.6364
mp-761857,LiNb(BO3)2,0.087641343,2.7438
mp-769319,LiNb(OF)2,0,2.8209
mp-673070,LiNb(PO4)2,0.076306876,2.2718
mp-758389,LiNb(TeO4)3,0.012977165,1.6716
mp-772535,LiNb13O33,0.012159296,1.7345
mp-559052,LiNb3(Bi2O7)2,0,2.7406
mp-28463,LiNb3Cl8,0,0.8827
mp-570869,LiNb3InCl9,0,0.9366
mp-3368,LiNb3O8,0,2.7464
mp-29985,LiNb6Cl19,0,0.7273
mp-774457,LiNb7V12O48,0.07238024,1.6223
mp-777452,LiNbCoO4,7.24E-05,1.9616
mp-771962,LiNbCrO4,0.06991817,1.0406
mp-1078799,LiNbF6,0,4.7969
mp-756415,LiNbFeO4,0,1.8379
mp-6456,LiNbGeO5,0.006307667,3.3815
mp-1029903,LiNbN2,0,1.1417
mp-777650,LiNbNiO4,0.01845899,2.977
mp-3924,LiNbO2,0,1.5795
mp-3731,LiNbO3,0,3.3358
mp-684534,LiNbP4O13,0.017450171,2.229
mp-7936,LiNbS2,0,0.7135
mp-1025496,LiNbSe2,0,0.7319
mp-767091,LiNbSn3(PO4)6,0.012371286,2.7647
mp-752611,LiNbTe2WO12,0.023753457,1.5177
mp-761817,LiNbVO4,0.03731158,1.2698
mp-1222358,LiNbWO6,0.013673802,2.6842
mp-6146,LiNbZnO4,0.003038348,2.7777
mp-1222327,LiNd(MoO4)2,0.022543057,3.4291
mp-1195211,LiNd(PN2)4,0,3.5181
mp-18711,LiNd(PO3)4,0,5.9792
mp-1211137,LiNd(WO4)2,0,3.6841
mp-24150,LiNd2HO3,0.020565308,1.8719
mp-630880,LiNd2Tl(MoO4)4,0.007120005,2.9659
mp-1185531,LiNd6B3O13F2,0,4.4538
mp-1211241,LiNd6B3O14,0,4.4113
mp-556814,LiNdGeO4,0.001571412,4.0584
mp-1222355,LiNdO2,0.008336155,3.655
mp-36791,LiNdS2,0.020528524,1.6009
mp-37605,LiNdSe2,0.002252995,1.523
mp-1105497,LiNdTi2O6,0.009516796,3.0901
mp-10520,LiNdTiO4,0.023202996,2.2825
mp-763540,LiNi(CO3)2,0.077538509,1.0949
mp-26001,LiNi(PO3)3,0,4.4131
mp-26141,LiNi(PO3)4,0.035495904,0.6868
mp-25823,LiNi2(PO3)5,0.04557767,3.5491
mp-766097,LiNi2(PO4)2,0.090268484,0.7833
mp-778860,LiNi2(SO4)3,0.031631682,3.886
mp-753331,LiNi2O2F,0.051588651,2.0498
mp-765582,LiNi2OF3,0.066056497,2.2779
mp-17664,LiNi2P3O10,0,3.6058
mp-40575,LiNi2P4H3O14,0,5.0358
mp-758954,LiNi3O3F,0.070011089,2.1894
mp-753317,LiNi3OF5,0.097778737,3.2492
mp-25879,LiNi3P3O11,0.027191792,3.335
mp-26511,LiNi4(PO4)3,0.027251347,3.4272
mp-753307,LiNi4O4F,0.064650251,1.7547
mp-758931,LiNi5O3F5,0.08027649,2.296
mp-753465,LiNi5O5F,0.05967503,1.7848
mp-861148,LiNi5P3O13,0.076402516,2.1798
mp-758667,LiNi6O6F,0.056756654,2.2594
mp-765469,LiNi7O7F,0.08345237,2.2198
mp-1222345,LiNiAsO4,0.021554641,2.6574
mp-755271,LiNiBO3,0.027376962,2.7845
mp-758501,LiNiF3,0.018963557,4.5441
mp-753559,LiNiOF,0.039559857,1.9612
mp-22417,LiNiPO4,0,3.6207
mp-1222366,LiNiRhF6,0,1.6961
mp-756254,LiNiSbO4,0,1.5919
mp-942700,LiNiSO4F,0.001509216,3.9201
mp-8180,LiNO3,0,2.731
mp-1079181,LiOsF6,0,1.2041
mp-9588,LiP,0,0.8095
mp-642650,LiP(HO)2,0,5.3164
mp-24610,LiP(HO2)2,0,5.5778
mp-757610,LiP(WO4)2,0.039083832,1.8364
mp-1195205,LiP2H8NO8,0.00598469,5.3449
mp-752528,LiP2WO7,0.015295145,3.4655
mp-758239,LiP2WO8,0.04832438,3.001
mp-758098,LiP3(WO6)2,0,2.3861
mp-1181036,LiP3N2O11,0.09355872,1.2607
mp-559627,LiP3PbO9,0.010240808,4.7126
mp-758410,LiP3W2O13,0.047649134,3.3183
mp-1235216,LiP4(Br3O)4,0.077328233,0.5519
mp-757973,LiP4WO12,0,3.7759
mp-758454,LiP4WO13,0.003464438,2.3303
mp-2412,LiP5,0.007694939,1.2571
mp-1222447,LiP5Pb2O15,0,4.6531
mp-763535,LiP5W3O19,0.097029815,0.6863
mp-772973,LiP5WO15,0.023726403,2.8415
mp-27687,LiP7,0,1.6527
mp-1185263,LiPaO3,0,3.1954
mp-9143,LiPF6,0,7.5394
mp-760046,LiPH21S3N7,0,3.0591
mp-23931,LiPH2O3,0.012272768,6.9796
mp-1203183,LiPH3NO3,0.067870532,4.4821
mp-1198038,LiPH4CO3,0.014040493,5.6095
mp-720554,LiPH4NO3F,0.013668007,5.1041
mp-3524,LiPN2,0,3.8016
mp-29195,LiPO3,0,5.6512
mp-22694,LiPPbO4,0,3.5252
mp-1211147,LiPr(MoO4)2,0.059342214,3.0924
mp-559719,LiPr(SO4)2,0,5.2457
mp-18932,LiPr(WO4)2,0,3.2598
mp-561257,LiPr2C2N4F3,0,3.6076
mp-1211486,LiPr6B3O14,0,4.3181
mp-10620,LiPrO2,0.009265335,3.5332
mp-675419,LiPrS2,0.034168894,1.8884
mp-25414,LiPWCO7,0.077148882,2.8866
mp-25416,LiPWO4F,0.054531213,3.1005
mp-757577,LiPWO5,0.021436351,1.9652
mp-554108,LiRe(OF2)2,0,3.1439
mp-540946,LiReO4,0,4.0225
mp-14115,LiRhO2,0,1.5153
mp-1078834,LiRuF6,0,0.9999
mp-559971,LiS2N(O2F)2,0.095589388,5.9004
mp-995393,LiS4,0,2.1585
mp-836278,LiSb(MoO4)2,0.038687012,1.8344
mp-504353,LiSb(PO3)4,0,4.357
mp-774064,LiSb(PO4)2,0.069122586,1.4549
mp-779809,LiSb(SO4)2,0.025070151,3.1309
mp-761825,LiSb(TeO4)3,0.001446844,1.3946
mp-684508,LiSb2(PO4)3,0.033993194,1.8474
mp-1195657,LiSb2F7,0,4.7225
mp-759444,LiSb2P3O11,0.078901317,3.1453
mp-684104,LiSb2P5O16,0.047426789,3.2951
mp-762248,LiSb3(P3O10)2,0.097307351,2.8455
mp-758492,LiSb3(PO5)2,0.064847402,2.4977
mp-29892,LiSb3O8,0,0.9744
mp-759607,LiSb4P7O24,0.062666597,3.389
mp-754902,LiSbCSO7,0.067661561,3.9764
mp-1190441,LiSbF4,0.000950189,5.135
mp-3980,LiSbF6,0,4.9334
mp-1198780,LiSbO2,0,3.0684
mp-4995,LiSbO3,0,2.1379
mp-1176602,LiSbP(OF3)2,0.065472003,2.1513
mp-26341,LiSbP2O7,0.016075594,3.713
mp-755185,LiSbPHO5,0.076389912,2.5562
mp-775867,LiSbPO5,0.069546775,1.5948
mp-14591,LiSbS2,0.013227332,1.1843
mp-754339,LiSbTe2WO12,0.04083131,1.8125
mp-17290,LiSbWO6,0.039087289,2.1215
mp-1222578,LiSc(BH4)4,0,4.6661
mp-1194740,LiSc(GeO3)2,0.009765723,3.6059
mp-6099,LiSc(SiO3)2,0.0028405,4.929
mp-1205649,LiSc(TlCl3)2,0,3.7703
mp-1211126,LiSc(WO4)2,0,3.5658
mp-552663,LiScAs2O7,0,3.4519
mp-559598,LiScF4,0.033409353,6.1137
mp-504948,LiScGeO4,0.007698813,3.9614
mp-1196171,LiScH2Se2O7,0,4.07
mp-5840,LiScO2,0,3.904
mp-10517,LiScP2O7,0,4.7646
mp-1001786,LiScS2,0,1.4857
mp-6224,LiScSiO4,0,4.6123
mp-754728,LiScVO4,0.040744836,1.3263
mp-757781,LiSi2(BiO3)3,0.053077559,2.8591
mp-1198027,LiSi2B,0,1.1668
mp-759680,LiSi2BiO6,0.03805223,3.5567
mp-556531,LiSi2BO6,0.005015607,5.2825
mp-5853,LiSi2N3,0,5.0143
mp-753300,LiSi2NiO6,0.082628693,0.9079
mp-757082,LiSi3BiO8,0.073696394,3.5281
mp-765576,LiSi4NiO10,0.06154237,0.8973
mp-772721,LiSi6Bi9O26,0.028699729,2.9084
mp-849779,LiSi6BiO14,0.033346931,3.9631
mp-973391,LiSiB6,0,1.4627
mp-757777,LiSiBi3O7,0.041568847,2.6693
mp-753327,LiSiBiO4,0.020551766,3.1058
mp-8874,LiSiBO4,0.005259895,6.4308
mp-6015,LiSiNO,0,5.2544
mp-768161,LiSiPCO7,0.093981399,5.7639
mp-771979,LiSiSbCO7,0.079121659,3.1814
mp-1211145,LiSm(MoO4)2,0.027902649,3.066
mp-1199215,LiSm(PO3)4,0,6.0068
mp-1211004,LiSm(WO4)2,0,3.6314
mp-1235200,LiSm2Cr2O8,0.066673355,0.7066
mp-1235612,LiSm4(Mo2O7)2,0.010095699,1.5365
mp-1236252,LiSm4V4O12,0.090977519,0.9365
mp-1211144,LiSm6B3O14,0,4.5108
mp-7800,LiSmO2,0.008716071,3.373
mp-1222296,LiSmS2,0,1.9482
mp-35388,LiSmSe2,0,1.5106
mp-1197059,LiSn(H2N)3,0,2.881
mp-504211,LiSn(PO3)3,0.016392373,4.0722
mp-1176625,LiSn(SO4)2,0.017863445,2.4113
mp-765193,LiSn10(PO4)7,0.087949743,2.8388
mp-26949,LiSn2(PO3)5,0,3.9968
mp-554917,LiSn2(PO4)3,0,3.4851
mp-768678,LiSn2(SO4)3,0.062914761,4.228
mp-1029294,LiSn2N3,0.070393509,0.8394
mp-684493,LiSn2P3O10,0.046947847,3.3694
mp-759095,LiSn2P4H3O16,0.041327079,3.3251
mp-757964,LiSn2P5O16,0.098549149,2.2785
mp-761694,LiSn3Sb(PO4)6,0.007919991,2.5894
mp-673024,LiSn4(PO4)3,0.029959858,3.7885
mp-684052,LiSn6P7O24,0.059684103,2.3277
mp-771890,LiSnAsCO7,0.062663458,1.9866
mp-998591,LiSnCl3,0.010201288,3.4801
mp-1245983,LiSnN,0.024130871,1.1624
mp-766457,LiSnP2O7,0.047906374,1.2683
mp-775916,LiSnPCO7,0.045973369,3.2058
mp-753239,LiSnPHO5,0.048740121,2.3396
mp-27017,LiSnPO4,0.005727327,3.4071
mp-7744,LiSO3F,0,5.7916
mp-1222423,LiTa2CuO6,0.060690203,1.1642
mp-7638,LiTa3O8,0,3.4495
mp-1222573,LiTa6O15,0.079578501,1.1577
mp-1080679,LiTaF6,0,5.9681
mp-560104,LiTaGeO5,0.003051272,3.7865
mp-3666,LiTaO3,0,3.7003
mp-1206881,LiTaS2,0,0.8541
mp-560297,LiTaSiO5,0,3.5714
mp-768074,LiTaWO6,0.049777297,3.2939
mp-18194,LiTb(PO3)4,0,6.022
mp-1211005,LiTb(WO4)2,0.000922843,3.7751
mp-1211079,LiTb6B3O14,0,4.7094
mp-7137,LiTbO2,0,4.5467
mp-1222297,LiTbS2,0,2.0554
mp-15793,LiTbSe2,0,1.5013
mp-1192681,LiTcH6O7,0,3.4434
mp-773582,LiTe(H3N)4,0,1.2815
mp-1235165,LiTe4H4(O3F4)2,0.067707242,0.8481
mp-1222518,LiTeH5O6,0.014614351,2.9304
mp-756477,LiTeHO4,0.067868675,1.4823
mp-755231,LiTeO3,0.062716616,1.8899
mp-782065,LiTePO5,0.043717476,3.5236
mp-1196169,LiThF5,0,6.5143
mp-684119,LiTi(PO3)5,0.030736767,1.4422
mp-757716,LiTi(Si2O5)2,0.06414045,0.6131
mp-18640,LiTi2(PO4)3,0,2.4404
mp-1120796,LiTi2BiO6,0.051471705,2.7097
mp-753655,LiTi2Mn3O10,0.074700466,1.2383
mp-753653,LiTi2P4H3O16,0.056459406,2.3456
mp-754024,LiTi2V3O10,0.082766327,1.4483
mp-764774,LiTi2V3O12,0.00744386,2.3032
mp-774505,LiTi2VO6,0.043605427,1.4798
mp-771567,LiTi3MnCr(PO4)6,0.000113686,2.1254
mp-757758,LiTi3Nb(PO4)6,0.012087737,2.5173
mp-766098,LiTi3Sb(PO4)6,0.005811325,2.4673
mp-757374,LiTi3V(PO4)6,0.014664703,1.2413
mp-1235238,LiTi3V5O16,0.08533137,0.8917
mp-753531,LiTi3VO8,0.099358878,1.5416
mp-1222338,LiTiAlO4,0.045972884,2.4977
mp-6113,LiTiAsO5,0,3.1654
mp-1176576,LiTiCoO4,0.06174871,0.629
mp-756275,LiTiCrO4,0,1.6509
mp-766410,LiTiCrSO8,0.082715161,0.6586
mp-753225,LiTiFe2O5,0.081175418,1.1118
mp-755965,LiTiFeO4,0.023513505,1.0827
mp-759309,LiTiMn3O8,0.093227864,0.6014
mp-1301329,LiTiMnO4,0.019573659,1.5162
mp-1290806,LiTiNiO4,0.046163252,0.6869
mp-758218,LiTiP2O7,0.089581856,3.6012
mp-25418,LiTiPCO7,0.024932997,2.5105
mp-6668,LiTiPO5,0,3.0592
mp-1222352,LiTiRhO4,0.000864951,1.0782
mp-766251,LiTiSi3O8,0.089609033,0.6163
mp-1222491,LiTiSn(PO4)3,0.007496224,2.5122
mp-849731,LiTiV2O6,0.076018417,1.0968
mp-756940,LiTiV3O10,0.06985409,1.5159
mp-772042,LiTiVO4,0,0.7527
mp-756178,LiTiVO5,0.084771993,1.5071
mp-989577,LiTl2GaF6,0,4.2623
mp-989512,LiTl2InCl6,0,2.8728
mp-989551,LiTl2InF6,0,4.0172
mp-556157,LiTl3(MoO4)2,0.002296546,3.6132
mp-1222275,LiTlO2,0.068669948,0.5022
mp-772968,LiTlPHO3,0,3.7372
mp-1210997,LiTm(WO4)2,0,3.7741
mp-1211183,LiTm6B3O14,0,4.8766
mp-1176564,LiTmO2,0,4.1825
mp-15066,LiTmSiO4,0,4.5721
mp-1223108,LiU4As3O20,0,1.8788
mp-555232,LiU4P3O20,0,1.58
mp-1180608,LiUAs(H4O5)2,0.000538555,2.5412
mp-558943,LiUAsO6,0,2.2759
mp-556156,LiUBO5,0.004834398,1.9059
mp-1222392,LiUI6,0,0.6632
mp-17807,LiUNbO6,0.001067546,1.7534
mp-560246,LiUP(H4O5)2,0,2.5244
mp-561098,LiUPO6,0.002539482,2.1007
mp-762019,LiV(CO3)2,0,1.7568
mp-559680,LiV(GeO3)2,0.010198126,2.1146
mp-554998,LiV(IO4)2,0.001157197,2.5336
mp-1539853,LiV(OF)2,0,2.2173
mp-26225,LiV(PO3)3,0.015660077,2.7513
mp-26955,LiV(PO3)4,0,2.1576
mp-504206,LiV(PO3)5,0.020789706,0.8322
mp-32465,LiV(PO4)2,0.034003945,1.961
mp-775301,LiV(Si2O5)3,0.054469534,2.0867
mp-774422,LiV(Si3O7)2,0.092755925,1.9559
mp-765346,LiV(SiO3)2,0,1.9358
mp-771941,LiV(SO4)2,0.014586995,1.8683
mp-772428,LiV(SO4)3,0.025135827,1.2947
mp-764607,LiV(TeO4)3,0.026324399,1.4647
mp-1210933,LiV(WO4)2,0.004183371,1.8383
mp-752532,LiV2(CO3)4,0.055310761,0.7913
mp-754467,LiV2(OF)3,0.090840997,0.6898
mp-756890,LiV2(PO3)5,0.055255027,2.76
mp-753869,LiV2(PO4)2,0.014024001,0.5545
mp-1101601,LiV2(PO4)3,0,1.3092
mp-762820,LiV2(SiO4)2,0.077437616,0.8676
mp-1176597,LiV2(SO4)3,0.025960532,0.5052
mp-770361,LiV2BO5,0.008975472,1.4778
mp-1280737,LiV2CrO6,0.063569563,1.207
mp-758252,LiV2F5,0.063696979,2.2369
mp-756227,LiV2F7,0.02546621,1.8395
mp-1176613,LiV2F9,0.040788366,1.7635
mp-1247728,LiV2FeO7,0.009941988,2.2984
mp-753201,LiV2H4(OF5)2,0.030641737,0.6728
mp-1565491,LiV2NiO6,0.059010902,1.5283
mp-753928,LiV2O2F3,0.051787283,1.3741
mp-753091,LiV2O3F,0.074461129,1.2002
mp-1288227,LiV2O4,0.012870998,0.6926
mp-777667,LiV2O5,0.009157789,1.6282
mp-765596,LiV2O5F,0.049286371,2.1494
mp-753339,LiV2OF5,0.050257647,1.6238
mp-1285272,LiV2OF7,0.051525189,1.8637
mp-758721,LiV2P2H5O11,0.040252007,2.0013
mp-778168,LiV2P2HO9,0.06997842,0.8734
mp-1013850,LiV2P2O9,0.01069951,1.0916
mp-26635,LiV2P3O10,0.028912816,2.4879
mp-32516,LiV2P3O11,0.038237769,1.5573
mp-776478,LiV2P4(HO8)2,0.051327605,0.651
mp-25812,LiV2P5O16,0,2.0618
mp-752517,LiV2PO7,0.090630783,0.8786
mp-769600,LiV2S2(O4F3)2,0.051213091,0.8804
mp-1235640,LiV2Zn2(SiO5)2,0.086875148,1.3528
mp-759980,LiV3(O2F)2,0.069333532,1.4523
mp-752988,LiV3(OF2)4,0.074744268,1.8348
mp-867665,LiV3(OF3)2,0,1.4935
mp-25911,LiV3(P3O10)2,0.042708481,2.0598
mp-559938,LiV3(TeO6)2,0,1.8778
mp-765496,LiV3F10,0.093427299,1.3838
mp-766078,LiV3Fe2CuO12,0.017189322,0.7355
mp-1176719,LiV3O3F7,0.026043651,1.215
mp-752985,LiV3O5F,0.077327972,1.2202
mp-758438,LiV3O5F3,0.068016717,0.9109
mp-1176549,LiV3O6,0.037589775,1.1511
mp-27503,LiV3O8,0.003348386,1.793
mp-777269,LiV3OF11,0.029473867,1.4645
mp-759104,LiV3P2(HO3)4,0.018740911,2.0421
mp-778204,LiV3P3(HO6)2,0.023707676,2.2196
mp-757627,LiV3P3O11,0.08144535,2.4475
mp-758286,LiV3P5O19,0.079117851,0.6828
mp-1280709,LiV3Zn2O8,0,1.3775
mp-758417,LiV4(PO4)3,0.052023184,1.7856
mp-1236154,LiV4O10,0.044535884,1.2247
mp-754849,LiV4O5F7,0.045486773,0.8641
mp-1236354,LiV4O8,0.098948151,0.831
mp-779753,LiV4OF11,0.040953764,1.3347
mp-1101513,LiV4P7O24,0.015223579,1.844
mp-759570,LiV5F11,0.07655566,2.248
mp-729119,LiV5H18N2O19,0.081880407,2.4621
mp-1222710,LiV5O10,0.089154624,0.5175
mp-1290531,LiV5O7F,0.058780258,0.8421
mp-760005,LiV6F13,0.086250053,1.9781
mp-542050,LiV6O13,0.083452427,0.6887
mp-776036,LiV6O15,0.024948227,0.6382
mp-753549,LiV6O7F5,0.056920275,1.1402
mp-26765,LiV6P7O24,0.035482196,2.4016
mp-781739,LiV8F33,0.033301521,1.1614
mp-756295,LiVAsCO7,0.049857535,1.7254
mp-17387,LiVAsO5,0.002485518,1.6489
mp-768913,LiVB2O5,0.046809843,2.2631
mp-756785,LiVBO3,0.080137202,1.5335
mp-756511,LiVBO4,0.055076591,2.5334
mp-1210866,LiVCdF6,0.002616103,2.5718
mp-766478,LiVCO3F2,0.075491367,1.7854
mp-765999,LiVCO4,0.040037495,1.3169
mp-1176659,LiVCO5,0.064289628,1.7316
mp-753926,LiVCoO4,0.009572942,1.3641
mp-766002,LiVCr(P2O7)2,0.006537008,1.3979
mp-756218,LiVCrO4,0.000520026,0.936
mp-765311,LiVCrP2(HO5)2,0.010989404,1.5227
mp-867682,LiVCrP2(O4F)2,0.005471945,1.4268
mp-754930,LiVCSO7,0.085352067,2.1325
mp-752764,LiVF3,0.018508799,2.5688
mp-754895,LiVF4,0,2.4354
mp-761275,LiVF5,0.001521678,1.5917
mp-2710677,LiVF6,0,3.0939
mp-752490,LiVFe(P2O7)2,0.005656277,1.3513
mp-756201,LiVFeO4,0.014798152,2.2008
mp-765988,LiVFeP2(HO5)2,0.021866721,1.7801
mp-777388,LiVFeP2(O4F)2,0.02887953,1.7351
mp-770840,LiVGaO4,0.058226092,1.1153
mp-850438,LiVGeO5,0.061910832,2.1787
mp-752723,LiVH2OF5,0.031444693,1.9578
mp-1222368,LiVMoO6,0.025858556,2.7403
mp-1029932,LiVN2,0,1.2871
mp-756943,LiVNiO4,0.001119554,2.1757
mp-1176523,LiVO2,0.012101926,1.5373
mp-752626,LiVO2F,0.074800336,2.2165
mp-19373,LiVO3,0,3.0342
mp-759150,LiVOF2,0.020925688,1.3432
mp-765230,LiVOF3,0.01490151,1.1322
mp-760189,LiVOF4,0.018203108,3.0138
mp-753087,LiVP2(HO4)2,0.003237199,1.7303
mp-774186,LiVP2H5O9,0.048221108,2.2968
mp-753865,LiVP2HO7,0.044952901,2.4174
mp-1576561,LiVP2HO8,0.044235935,1.5438
mp-26227,LiVP2O7,0,1.9415
mp-780313,LiVP3(H7O8)2,0.036669146,1.2366
mp-780522,LiVP3H8O13,0.054759759,2.7241
mp-849372,LiVP3HO10,0.036547883,1.9301
mp-778976,LiVP4(H2O3)6,0.057791206,2.9371
mp-755618,LiVP4(H2O7)2,0.015393627,2.2388
mp-25948,LiVP4O13,0.020909404,0.9416
mp-753805,LiVPCO7,0.0433803,1.0886
mp-779915,LiVPH2O5,0.09281041,2.1198
mp-1203841,LiVPH4O7,0.049400794,2.56
mp-753560,LiVPHO5,0,1.8043
mp-26127,LiVPO4,0,2.6021
mp-25423,LiVPO4F,0,1.6248
mp-26963,LiVPO5,0,1.5636
mp-765984,LiVSi3O8,0.058280061,2.9766
mp-1256989,LiVSi4(HO6)2,0.079637364,1.9548
mp-770650,LiVSiCO7,0.093955287,1.8349
mp-753702,LiVSiO4,0.004977612,1.7422
mp-754539,LiVSiO5,0.056768822,2.0428
mp-770969,LiVSn3(PO4)6,0.024752763,1.3638
mp-850189,LiVSnO4,0,1.4519
mp-769603,LiVSO4F3,0.04785199,0.893
mp-753012,LiVTe(WO6)2,0.050305545,1.6739
mp-756572,LiVTe2WO12,0.064957491,1.2441
mp-1181006,LiVTeO5,0.00260615,2.7905
mp-754143,LiVWO6,0.059587315,2.4436
mp-1222477,LiVZnO4,0,3.35
mp-1222570,LiW3O9F,0.024483961,2.5627
mp-759647,LiWF6,0,3.1491
mp-1190102,LiY(BH4)4,0.009421667,5.742
mp-1198519,LiY(CN2)2,0.023225658,3.7769
mp-557310,LiY(MoO4)2,0.050746907,3.3563
mp-556861,LiY(PO3)4,0.004690644,5.8405
mp-1139957,LiY(TlCl3)2,0,4.4393
mp-1191085,LiY(WO4)2,0,3.7774
mp-1202176,LiY3Si2(O4F)2,0.006577344,5.2282
mp-756622,LiY3WO8,0.066017705,2.9477
mp-1235884,LiY5(MoO6)2,0.062795489,1.6868
mp-555489,LiY6B3O14,0.01251002,4.3885
mp-1222506,LiY9(Si3O13)2,0.029051965,4.4329
mp-3700,LiYF4,0,7.8341
mp-1211012,LiYGeO4,0.011135901,3.817
mp-1035901,LiYMg14O16,0.046438368,3.8415
mp-1037661,LiYMg30O32,0.020209441,4.3113
mp-1033703,LiYMg6O8,0.061550199,4.0027
mp-7020,LiYO2,0,4.0135
mp-15788,LiYS2,0,1.9204
mp-15794,LiYSe2,0,1.5239
mp-558941,LiYSiO4,0,5.1083
mp-1204713,LiZn(BH4)3,0.027886775,4.8749
mp-1198025,LiZn2(BH4)5,0,5.7198
mp-1235459,LiZn2AgWO6,0.084474797,2.05
mp-771993,LiZn2Fe9O16,0.06935132,1.1617
mp-769606,LiZn4Fe13O24,0.084367668,1.161
mp-771348,LiZn6Fe17O32,0.091368117,0.8739
mp-9124,LiZnAs,0,0.5518
mp-774651,LiZnAsH2O5,0.021856746,3.108
mp-18048,LiZnAsO4,0,2.9218
mp-1222376,LiZnBO3,0.0203416,3.5248
mp-769549,LiZnCr3(SO4)6,0.010758301,2.0289
mp-771267,LiZnFe7O12,0.069709352,1.1619
mp-1222343,LiZnFeO3,0.07078057,1.7136
mp-1210934,LiZnInF6,0.019219302,4.052
mp-1104352,LiZnIO4,0.096098453,2.8646
mp-7575,LiZnN,0,0.5187
mp-10182,LiZnP,0,1.3386
mp-1211621,LiZnP2HO7,0,4.4957
mp-24585,LiZnPH2O5,0.020476928,4.0249
mp-559934,LiZnPO4,0,4.13
mp-11175,LiZnPS4,0,2.7312
mp-1222336,LiZnRhF6,0,1.5896
mp-1100430,LiZnSb,0.004926168,0.6083
mp-1203440,LiZnSO4F,0,4.2073
mp-1202818,LiZr2(AsO4)3,0,3.8841
mp-10499,LiZr2(PO4)3,0,4.2388
mp-601344,LiZr3H18N4F19,0,6.3872
mp-1222362,LiZr4(NCl)4,0.090318378,0.6266
mp-1222537,LiZr5TlF22,0,5.2244
mp-753649,LiZrPCO7,0.052768542,4.1552
mp-604147,Na2Li(H2N)3,0.008052363,2.1905
mp-772969,Na2Li(NiO2)3,0.030573351,0.9474
mp-43030,Na2Li2Al3Si3ClO12,0.00554652,4.6612
mp-861533,Na2Li2CoO4,0.055879007,0.6293