MP ID,Formula,Energy Above Hull (eV),Band Gap (eV)
mp-1196081,LiBH4C2(O3F)2,0.064293561,3.4009
mp-1196392,LiBH5N,0.090735586,4.1364
mp-1203555,LiBH7N,0.044609881,5.643
mp-1176797,LiBi(BO3)2,0.031844147,1.3642
mp-504354,LiBi(PO3)4,0,5.0024
mp-1211195,LiBi(WO4)2,0.003933002,2.4718
mp-504151,LiBi2(PO4)3,0.06102904,0.5567
mp-768636,LiBi2BO5,0.098425232,1.7318
mp-758810,LiBi2P3O11,0.078662383,3.3756
mp-759653,LiBi2PO6,0.05030468,3.094
mp-768150,LiBi3(BrO2)2,0,2.5094
mp-754206,LiBi3(ClO2)2,0,2.7135
mp-775430,LiBi3(IO2)2,0,1.7552
mp-759396,LiBi3(P3O10)2,0.065863393,3.9787
mp-26173,LiBi3(PO5)2,0.00962917,3.3957
mp-768997,LiBi3O5,0.0809803,1.8414
mp-768774,LiBi4B3O11,0.069389293,3.3149
mp-759254,LiBi4P7O24,0.057514899,3.8273
mp-778009,LiBi6B3O14,0.041526479,2.5046
mp-768795,LiBiB2O5,0.051805015,2.9716
mp-770759,LiBiCSO7,0.069853278,3.3523
mp-28567,LiBiF4,0,4.8473
mp-27419,LiBiF6,0,2.5394
mp-1540429,LiBiO2,0,2.5217
mp-26129,LiBiP2O7,0.009609454,3.7757
mp-1222404,LiBiS2,0,1.4793
mp-14232,LiBO2,0,7.2811
mp-1203380,LiBP2Pb4O11,0.005077117,2.5899
mp-976280,LiBr,0,4.935
mp-555090,LiBS4(ClO3)4,0.009117101,4.6226
mp-1378,LiC,0.015816328,3.2727
mp-1190940,LiC2N3,0.080899199,4.6716
mp-569282,LiCa10MgSb9,0,0.9226
mp-1211639,LiCa11Sb9,0,0.7257
mp-1222411,LiCa2CuN2,0,1.0397
mp-1211085,LiCa2FeN2,0.021103783,0.667
mp-1104693,LiCa2HC3,0,1.2992
mp-1202461,LiCa2Mn2Si5HO15,0,3.4069
mp-766983,LiCa2Nb3O10,0.02873949,1.633
mp-1205694,LiCa2ReO6,0.097332729,1.5831
mp-774479,LiCa2Ta3O10,0.068356418,2.1736
mp-1192528,LiCa3As2H,0,1.4417
mp-757592,LiCa3Fe5Sn3O16,0.059014326,0.8642
mp-1020056,LiCa3Si2N5,0,2.4392
mp-677136,LiCa3Zr3TaO12,0.005249664,3.7017
mp-6799,LiCa4(BN2)3,0,2.1934
mp-1202682,LiCa7(GeH)3,0,0.7149
mp-699599,LiCa9Co(PO4)7,0.024831773,3.7824
mp-686484,LiCa9Mg(PO4)7,0.032547083,4.7063
mp-554324,LiCa9Mn(PO4)7,0,4.3144
mp-1020107,LiCaAl3N4,0.01282213,3.0163
mp-6134,LiCaAlF6,0,7.6448
mp-1020031,LiCaAlN2,0,2.7797
mp-1095289,LiCaAs,0,1.1015
mp-569501,LiCaBi,0,0.579
mp-561237,LiCaBO3,0,5.0401
mp-556792,LiCaCrF6,0,4.0967
mp-1176820,LiCaFe3SnO8,0.049078409,2.0104
mp-1211093,LiCaFeF6,0,4.1719
mp-12829,LiCaGaF6,0,6.4003
mp-570948,LiCaGaN2,0,2.1319
mp-1079935,LiCaH3,0.021480728,2.5547
mp-1020108,LiCaMgSiN3,0.003958234,2.8374
mp-31468,LiCaN,0,1.3785
mp-1211088,LiCaP,0,1.3987
mp-721067,LiCaP3H8O13,0.035634863,5.2237
mp-16804,LiCaPO4,0.003069338,5.1799
mp-40186,LiCaPrTeO6,0.017836657,3.1095
mp-16264,LiCaSb,0,0.6443
mp-39511,LiCaTa2O6F,0.030018844,3.6629
mp-1211094,LiCaVF6,0,2.6309
mp-697926,LiCd2HSe2O7,0,3.1466
mp-1202839,LiCd4(GeO3)5,0.047970913,0.5378
mp-24405,LiCd4Ge5HO15,0.012719446,1.8714
mp-6126,LiCdBO3,0,2.1156
mp-1211087,LiCdFeF6,0,3.7992
mp-556786,LiCdPO4,0.000382408,3.4478
mp-1195868,LiCeF5,0,2.2896
mp-768198,LiCePCO7,0.070440116,1.6015
mp-22905,LiCl,0,6.25
mp-30301,LiClO4,0,5.7447
mp-1222426,LiCNO,0.054225879,4.8114
mp-1303576,LiCo(CO3)2,0.042718317,0.7002
mp-26015,LiCo(PO3)3,0,1.7071
mp-26997,LiCo(PO3)4,0,1.3617
mp-755994,LiCo(SiO3)2,0.059531882,1.4986
mp-25289,LiCo(WO4)2,0.09684915,1.0885
mp-1190287,LiCO2,0.056494788,3.5989
mp-1101526,LiCo2(PO3)5,0.005959961,3.1948
mp-753804,LiCo2(PO4)2,0.024999038,0.5239
mp-758625,LiCo2C2O7,0.055502132,1.19
mp-765718,LiCo2OF3,0.059307925,1.8536
mp-780316,LiCo2OF5,0.094138741,0.8738
mp-22042,LiCo2P3O10,0.00184155,2.7489
mp-41701,LiCo2P4H3O14,0.003140755,3.1992
mp-26204,LiCo2P5O16,0.019956335,1.1541
mp-26567,LiCo3(P3O10)2,0.052907116,0.9597
mp-1318786,LiCo3NiO8,0.029013072,0.5293
mp-760399,LiCo3OF5,0.08294689,2.4933
mp-775872,LiCo3P4O15,0.079233858,0.6998
mp-760350,LiCo5O3F5,0.083586702,1.183
mp-20046,LiCoAsO4,0.002541873,2.2041
mp-758146,LiCoCO4,0.07788671,0.9274
mp-759500,LiCoF3,0.088006856,2.833
mp-554689,LiCoF4,0,1.9285
mp-763507,LiCoGeO4,0.081363354,1.5655
mp-759255,LiCoH8(CO5)2,0.065063643,0.6846
mp-780159,LiCoH8(SO6)2,0.05099435,1.0009
mp-942704,LiCoHSO5,0.013146946,2.4131
mp-1222369,LiCoNiF6,0.002659737,1.7139
mp-22526,LiCoO2,0,0.6623
mp-754170,LiCoP2O7,0.028930794,0.8805
mp-754793,LiCoPHO5,0.025371587,2.0953
mp-758022,LiCoPO4,0,3.2239
mp-25465,LiCoPO4F,0.011646433,0.808
mp-1176780,LiCoS2,0.002513149,0.6075
mp-773085,LiCoSbO4,0,1.2511
mp-762880,LiCoSiO4,0.06932477,1.0911
mp-1308196,LiCoSnO4,0.06028531,0.9331
mp-942701,LiCoSO4F,0.007272736,2.6591
mp-770839,LiCr(CO3)2,0,3.0397
mp-1305214,LiCr(CoO3)2,0.078650809,0.5006
mp-1222585,LiCr(FeO2)4,0.071068886,1.419
mp-21549,LiCr(GeO3)2,0.01968534,2.4797
mp-1191696,LiCr(MoO4)2,0.016150374,2.76
mp-26063,LiCr(PO3)3,0.019013946,2.6113
mp-25985,LiCr(PO3)4,0.001379062,3.548
mp-697692,LiCr(PO4)2,0.083787725,1.2457
mp-780620,LiCr(Si2O5)2,0.095550894,2.1385
mp-850539,LiCr(Si2O5)3,0.091951122,0.7595
mp-510529,LiCr(SiO3)2,0.005692387,1.3167
mp-776761,LiCr(SO4)2,0.021807854,2.1597
mp-1191127,LiCr(WO4)2,0.006666214,2.4172
mp-1211202,LiCr2(MoO4)3,0.055005987,0.735
mp-25861,LiCr2(PO3)5,0.049214926,3.016
mp-753873,LiCr2(PO4)2,0.076716596,0.6741
mp-770490,LiCr2(SO4)3,0.035828584,0.7267
mp-1272833,LiCr2O3,0.075512477,1.6572
mp-774032,LiCr2O4,0.023471187,0.6332
mp-1013922,LiCr2P2O9,0.022310733,0.6365
mp-585354,LiCr2P3O10,0.027864229,2.5486
mp-25817,LiCr2P3O11,0.049659734,1.038
mp-779318,LiCr2P3O13,0.097993351,0.6845
mp-26133,LiCr2P5O16,0.013583064,2.9926
mp-755327,LiCr3(FeO4)2,0.018947511,1.3003
mp-779048,LiCr3(P3O10)2,0.076106148,1.7223
mp-766088,LiCr3Ni(SO4)6,0.009440651,2.0799
mp-674219,LiCr3O8,0,1.6224
mp-770652,LiCr3O9,0.065135815,1.351
mp-778901,LiCr3P3(HO6)2,0.046241545,1.5829
mp-775294,LiCr3P4O15,0.059761908,2.2298
mp-26967,LiCr4(PO4)3,0,2.4213
mp-1101527,LiCr4P7O24,0.034258372,2.1691
mp-504358,LiCr6P7O24,0.021567932,2.3798
mp-768612,LiCrAsCO7,0.069573241,0.6708
mp-768542,LiCrB2O5,0.051130554,2.4891
mp-778018,LiCrB3(HO3)3,0.062833156,1.4087
mp-754133,LiCrBO3,0.049894269,1.449
mp-1211098,LiCrCdF6,0,3.9378
mp-766487,LiCrCO3F2,0.090156339,2.5199
mp-765159,LiCrCO4,0.029675039,2.4796
mp-773160,LiCrCSO7,0.037364464,2.2241
mp-759949,LiCrF4,0.040724317,3.0313
mp-754281,LiCrFeO4,0.095099793,0.7232
mp-18793,LiCrO2,0,3.1156
mp-780488,LiCrP2H5O9,0.035613903,2.6141
mp-755270,LiCrP2HO7,0.0349499,2.6551
mp-19103,LiCrP2O7,0,2.433
mp-1176770,LiCrP2S7,0.039970857,1.4187
mp-849450,LiCrP3H8O13,0.04945508,2.5294
mp-849467,LiCrPH2O5,0.069109528,2.544
mp-25447,LiCrPO4,0.005038789,2.1346
mp-25448,LiCrPO4F,0,2.0339
mp-755345,LiCrPO5,0.09092838,0.9087
mp-4226,LiCrS2,0,0.6463
mp-753254,LiCrSi3O8,0.081628525,2.7109
mp-763610,LiCrSiO4,0.017846021,2.5476
mp-756864,LiCrSnO4,0,2.3777
mp-1188861,LiCSN,0.040761352,3.8542
mp-759472,LiCu(HO)4,0.08133509,1.4109
mp-25975,LiCu(PO3)2,0.044857398,1.8046
mp-12185,LiCu(PO3)3,0,0.6669
mp-26262,LiCu(PO3)4,0.00290419,0.6922
mp-1199484,LiCu2BP2(HO5)2,0.006820069,0.6144
mp-849424,LiCu2P3(HO5)2,0.075341839,1.399
mp-1202845,LiCu2Si12(H3C)27,0.063659716,2.6511
mp-1176748,LiCu3(SiO3)2,0.072936227,1.601
mp-752638,LiCuCO3,0.043185224,2.1764
mp-753098,LiCuF2,0.045248096,1.8448
mp-753257,LiCuF4,0,0.8279
mp-1176743,LiCuHSO5,0.068984129,0.6832
mp-5127,LiCuO,0,1.4376
mp-996987,LiCuO2,0.021594026,0.5072
mp-684120,LiCuP2O7,0.046918135,5.0684
mp-504264,LiCuPO4,0.038892947,0.5457
mp-1407369,LiCuS,0.004154272,1.5952
mp-766486,LiCuS2,0.065781902,0.5744
mp-1222546,LiCuSbO4,0.033670591,0.5013
mp-756392,LiCuSi2O5,0.098601446,1.9426
mp-6413,LiDy(PO3)4,0.002915776,5.6359
mp-1192153,LiDy(WO4)2,0,3.7868
mp-1211233,LiDy6B3O14,0,4.7578
mp-976726,LiDyO2,0,4.5644
mp-15789,LiDyS2,0,1.9347
mp-15795,LiDySe2,0,1.5348
mp-555065,LiEr(PO3)4,0.008097708,5.9275
mp-1192111,LiEr(WO4)2,0,3.7954
mp-555002,LiEr2S2O8F3,0.014181028,6.0868
mp-1235802,LiEr2Tl2(WO4)4,0.045247312,1.9454
mp-1211593,LiEr6B3O14,0.017893082,4.8612
mp-10970,LiErO2,0,4.1108
mp-15791,LiErS2,0,2.0659
mp-15797,LiErSe2,0,1.6151
mp-568863,LiEu2CBr3N2,0,0.7451
mp-1200887,LiEu2CI3N2,0,1.0261
mp-1138,LiF,0,8.7161
mp-753899,LiFe(CO3)2,0,2.1192
mp-21270,LiFe(GeO3)2,0.022486255,2.4963
mp-561087,LiFe(MoO4)2,0.016076885,2.4998
mp-26003,LiFe(PO3)3,0,5.0981
mp-25977,LiFe(PO3)4,0,2.938
mp-887746,LiFe(Se2O5)2,0.003454698,2.0499
mp-558555,LiFe(SeO3)2,0,2.6596
mp-857353,LiFe(Si2O5)2,0.015792124,3.3411
mp-863392,LiFe(Si3O7)2,0.099730415,2.3794
mp-19061,LiFe(SiO3)2,0.009870156,2.4396
mp-771819,LiFe(SO4)2,0.020576667,2.0517
mp-764904,LiFe2(BO3)2,0.049501182,2.219
mp-755254,LiFe2(ClO)2,0.080153039,0.8027
mp-1176763,LiFe2(CO3)3,0.069001806,1.5254
mp-1176742,LiFe2(PO3)5,0.082019089,0.5324
mp-767222,LiFe2(PO4)2,0.032214802,1.4085
mp-769018,LiFe2(SO4)3,0.012084818,1.3548
mp-776764,LiFe2F5,0.040800402,3.2193
mp-557403,LiFe2F6,0,1.7058
mp-776692,LiFe2F7,0.021258895,3.081
mp-776050,LiFe2F9,0.084373427,1.1771
mp-755438,LiFe2O2F3,0.069680382,1.1486
mp-1298536,LiFe2O3,0.027345403,1.5558
mp-776904,LiFe2OF3,0.034207641,2.9055
mp-755843,LiFe2OF5,0.031288712,2.0208
mp-753451,LiFe2P2HO8,0.026520219,3.7997
mp-27007,LiFe2P3O10,0,3.1686
mp-758108,LiFe2P3O11,0.051268041,2.31
mp-26184,LiFe2P5O16,0.004281455,2.1522
mp-1222530,LiFe2Rh3O8,0.011428873,0.8435
mp-780866,LiFe2Si2O7,0.058643349,2.1628
mp-754427,LiFe3(OF3)2,0.012405595,1.7498
mp-25883,LiFe3(P3O10)2,0.031906859,2.4394
mp-780681,LiFe3(SiO4)2,0.063688491,0.6306
mp-1176726,LiFe3O4,0.039324302,0.9192
mp-758661,LiFe3OF5,0.086379731,2.5003
mp-780853,LiFe3P3(HO6)2,0.008126915,2.9174
mp-705089,LiFe3P3O11,0.042467749,3.7017
mp-705381,LiFe3P4O15,0.05199148,2.1315
mp-1222519,LiFe3SiPO8,0.004399614,3.5642
mp-774381,LiFe4(BO3)4,0.074066825,1.7778
mp-25825,LiFe4(PO4)3,0.049874921,2.0777
mp-632692,LiFe4(PO4)4,0.038299234,0.7423
mp-776991,LiFe4OF7,0.065607218,2.2788
mp-697800,LiFe4P7O24,0.039673611,2.3447
mp-1176720,LiFe5(OF2)4,0.057782766,1.6382
mp-705376,LiFe5(P2O7)4,0.042874143,2.0067
mp-754471,LiFe5O3F5,0.075266724,1.6707
mp-766142,LiFe5O5F,0.067261794,0.8636
mp-21735,LiFe5O8,0.06306247,0.8787
mp-758965,LiFe5P3O13,0.052839126,2.7297
mp-754565,LiFe6O7F5,0.082099796,1.4787
mp-754332,LiFe7(OF3)3,0.062082367,2.3048
mp-849747,LiFe8(BO3)8,0.080431953,1.7295
mp-18878,LiFeAs2O7,0.003802131,2.5882
mp-510641,LiFeAsO4,0,2.0793
mp-774231,LiFeB2O5,0.044136501,2.6882
mp-777049,LiFeBO3,0,3.1611
mp-1211043,LiFeBr4,0,0.9341
mp-1210931,LiFeCl4,0,1.2679
mp-766495,LiFeCO3F2,0.080227242,1.7006
mp-757567,LiFeCO4,0.051272118,1.6555
mp-770901,LiFeCSO7,0.052603958,1.8918
mp-777522,LiFeF3,0.022920701,3.0669
mp-1176702,LiFeF4,0.009665947,3.274
mp-776151,LiFeF5,0.059116522,0.8536
mp-1222351,LiFeF6,0,1.2569
mp-780157,LiFeH12(SO7)2,0.034287987,2.3468
mp-781672,LiFeH8(SO6)2,0.034575939,2.3339
mp-943462,LiFeHSO5,0,3.6749
mp-561410,LiFeMoClO4,0,2.6161
mp-757614,LiFeO2,0,1.1827
mp-1272771,LiFeOF,0.07572797,1.7099
mp-849274,LiFeOF2,0.039504478,2.2784
mp-782655,LiFeP(H6O5)2,0.041674869,3.6405
mp-1195117,LiFeP2(HO3)2,0.084904601,2.7734
mp-779003,LiFeP2H5O9,0.039108004,3.5801
mp-781683,LiFeP2HO7,0.020346391,3.9745
mp-19294,LiFeP2O7,0,2.5994
mp-850955,LiFeP3(H7O8)2,0.037296408,3.6075
mp-781053,LiFeP3(HO5)2,0.073863634,3.6183
mp-849293,LiFeP3H8O13,0.051336001,3.6786
mp-780206,LiFePH2O5,0.028076668,3.3225
mp-705884,LiFePHO5,0.002035459,1.9285
mp-19017,LiFePO4,0,3.9224
mp-25407,LiFePO4F,0.005248857,1.9307
mp-774920,LiFeSbO4,0,1.0421
mp-757037,LiFeSi3O8,0.036487908,3.3579
mp-758562,LiFeSiO4,0.011708978,2.1589
mp-756311,LiFeSnO4,0.001434742,1.6327
mp-943492,LiFeSO4F,0.006646499,1.3691
mp-1210860,LiFeWClO4,0.037835853,3.1676
mp-1222398,LiGa(GeSe3)2,0.014973975,1.5104
mp-1194674,LiGa(H2N)4,0,3.1636
mp-557676,LiGa(MoO4)2,0.008237677,3.5664
mp-1211020,LiGa(PO3)4,0,5.0646
mp-1198930,LiGa(SeO3)2,0,4.2558
mp-6241,LiGa(SiO3)2,0.042667977,4.532
mp-17510,LiGa(WO4)2,0.024607463,3.1534
mp-33338,LiGa3Te5,0.006060284,1.041
mp-1236043,LiGa4(WO6)2,0.077287184,2.3933
mp-28146,LiGa5O8,0,2.5223
mp-545346,LiGaAs2O7,0.026722109,2.3654
mp-1222409,LiGaBH3O5,0,4.4692
mp-28327,LiGaBr3,0,2.956
mp-28326,LiGaBr4,0,3.4374
mp-29344,LiGaCl3,0,3.6888
mp-28341,LiGaCl4,0,4.4866
mp-8702,LiGaGeO4,0.012845771,2.7169
mp-1192145,LiGaH4,0.000284104,4.6818
mp-29345,LiGaI3,0,2.2473
mp-567967,LiGaI4,0,2.5201
mp-5854,LiGaO2,0,3.1981
mp-1210869,LiGaPO4F,0.037150687,4.2706
mp-3647,LiGaS2,0,2.9608
mp-11582,LiGaSe2,0,2.0656
mp-18147,LiGaSiO4,0,4.0502
mp-5048,LiGaTe2,0,1.5885
mp-1210959,LiGd(MoO4)2,0.03574687,2.9784
mp-6248,LiGd(PO3)4,0,3.4298
mp-1211108,LiGd(SO4)2,0,2.6325
mp-1210920,LiGd(WO4)2,0,3.3513
mp-581285,LiGd6B3O14,0.008145956,2.8936
mp-28122,LiGdCl4,0.001737418,0.9065
mp-21332,LiGdO2,0,3.2804
mp-1222370,LiGdS2,0,1.6532
mp-15792,LiGdSe2,0,1.1717
mp-541272,LiGe2(PO4)3,0.009428665,3.385
mp-1020059,LiGe2N3,0,2.763
mp-1222357,LiGe3SbTe5,0.012924478,0.8269
mp-8873,LiGeBO4,0.004399628,4.5264
mp-1246087,LiGeN,0.05357258,1.4527
mp-768164,LiGePCO7,0.060203771,3.4558
mp-1222349,LiGeRhO4,0,1.6895
mp-1222311,LiGeSbTe3,0.029464633,0.822
mp-23703,LiH,0,2.981
mp-754153,LiH2BrO,0,4.3086
mp-1201902,LiH2BrO5,0,3.0459
mp-760502,LiH2ClO,0.012922039,5.3072
mp-1195620,LiH2ClO5,0,5.565
mp-1210974,LiH2CN5,0.003463948,4.2014
mp-1180504,LiH2IO,0,3.7175
mp-23702,LiH2N,0,3.1358
mp-722902,LiH2NO3,0.05024586,2.5465
mp-24446,LiH2SO4,0.048773612,5.1899
mp-696288,LiH3(SeO3)2,0.005623733,4.0114
mp-1102469,LiH3C2O5,0.050162412,3.3479
mp-1196577,LiH3CN2O,0.013358001,4.0558
mp-556503,LiH3CO3,0.069186263,5.2442
mp-1103298,LiH3IN,0,3.8235
mp-27281,LiH3O2,0,4.543
mp-1196875,LiH4CN3,0.015919288,4.2206
mp-1203010,LiH4CSNO2,0.099303634,4.0282
mp-1194832,LiH4SNO4,0,5.3715
mp-504426,LiH5S(NO2)2,0.0862678,5.62
mp-23985,LiH6BrO7,0.006165395,3.123
mp-23797,LiH6ClO7,0.006700699,5.2939
mp-1193954,LiH6IO7,0.014346953,2.36
mp-23906,LiH6NO6,0.009896489,3.0028
mp-1222708,LiH7(SO4)4,0.006011784,5.7596
mp-24199,LiHF2,0,8.0448
mp-1029331,LiHf2N3,0,0.6088
mp-754075,LiHfPCO7,0.05320227,5.2283
mp-23856,LiHO,0,4.0057
mp-555366,LiHo(PO3)4,0.002747814,6.3105
mp-1191729,LiHo(WO4)2,0,3.7911
mp-1235332,LiHo2Cu(SiO3)4,0.071616532,1.6564
mp-561095,LiHo3Ge2(O4F)2,0.016893543,4.1233
mp-1211170,LiHo6B3O14,0.014842465,4.7947
mp-12645,LiHoO2,0,4.0182
mp-15790,LiHoS2,0,1.9863
mp-15796,LiHoSe2,0,1.5729
mp-644419,LiHS,0,3.5253
mp-23843,LiHSeO3,0,4.3019
mp-643458,LiHSO4,0,5.9636
mp-570935,LiI,0,4.3818
mp-1200439,LiIn(CN2)2,0,2.8984
mp-973966,LiIn(IO3)4,0,2.6987
mp-554101,LiIn(MoO4)2,0.015193988,3.2584
mp-6240,LiIn(SiO3)2,0.011506919,3.6724
mp-1190195,LiIn(WO4)2,0,3.346
mp-1079491,LiIn2CuSe4,0.003921622,0.9331
mp-1222542,LiIn2CuTe4,0.005066375,1.0577
mp-8892,LiInF4,0,4.0149
mp-17854,LiInGeO4,0,2.2778
mp-541001,LiInI4,0,2.2465
mp-5488,LiInO2,0,1.8143
mp-8491,LiInP2O7,0,3.9726
mp-1188392,LiInS2,0,2.2212
mp-20187,LiInSe2,0,1.5731
mp-7205,LiInSiO4,0,3.0287
mp-20782,LiInTe2,0,1.3847
mp-23384,LiIO3,0,3.7255
mp-29473,LiIO4,0.037859892,2.0725
mp-1189974,LiLa(CN2)2,0,3.2525
mp-1188898,LiLa(CO3)2,0,4.1747
mp-729006,LiLa(MoO4)2,0.008190204,3.5025
mp-560866,LiLa(PO3)4,0,4.9957
mp-1210919,LiLa(WO4)2,0,3.6807
mp-1236767,LiLa2Fe2(TeO6)2,0.059378822,0.8027
mp-1078209,LiLa2FeO6,0,0.7547
mp-24148,LiLa2HO3,0.02047767,1.9578
mp-19377,LiLa2MoO6,0,1.5043
mp-557969,LiLa2S2O8F3,0.010022679,4.5891
mp-6674,LiLa2SbO6,0.003134719,3.7234
mp-766086,LiLa2Ti2CrO9,0.042359161,1.9221
mp-1222623,LiLa3MnO7,0.044306534,2.2799
mp-766995,LiLa3Ti2O9,0.030498589,2.362
mp-1222363,LiLa4AlO8,0.059649001,2.545
mp-560605,LiLa4AuO8,0,1.6583
mp-753934,LiLa4CoO8,0.036568817,1.4674
mp-21496,LiLa4CuO8,0.015669528,0.7702
mp-770950,LiLa4MnO8,0.071134242,1.7082
mp-19445,LiLa4NiO8,0.012339858,1.5155
mp-1222517,LiLa5Si4N10O,0,2.3934
mp-560293,LiLa5Ti8O24,0.027945375,1.9695
mp-769499,LiLa8V8O32,0.082927213,1.1582
mp-1040140,LiLaMg30O32,0.045185828,4.23
mp-861268,LiLaNb2O7,0.076826515,1.39
mp-1222364,LiLaNb4O12,0.068569535,1.3413
mp-776091,LiLaNdSbO6,0.005936215,3.9173
mp-756544,LiLaO2,0.014486134,3.6258
mp-1147554,LiLaSO,0.008456594,3.1672
mp-1222361,LiLaTa2O7,0.07020928,2.2515
mp-767402,LiLaTi2O6,0.061314387,1.5183
mp-6521,LiLaTiO4,0.028770968,2.2637
mp-1190882,LiLu(WO4)2,0,3.8008
mp-561430,LiLuF4,0,7.7542
mp-754605,LiLuO2,0,4.5008
mp-1235383,LiLuZnFeO4,0.083267493,1.2057
mp-1180600,LiMg(AlH4)3,0.032821187,5.0326
mp-571132,LiMg10AlH24,0.012016507,3.5822
mp-866755,LiMg149,0.008162058,0.5707
mp-1036537,LiMg14AlO16,0.021739465,4.286
mp-1035156,LiMg14BiO16,0.080545448,2.1324
mp-1035145,LiMg14CoO16,0.035920557,0.5909
mp-1035402,LiMg14CrO16,0.016467809,2.0147
mp-1035435,LiMg14FeO16,0.009734582,1.9419
mp-1035108,LiMg14GaO16,0.018466592,3.7045
mp-1036220,LiMg14MnO16,0.009279722,0.7532
mp-1035164,LiMg14SbO16,0.083503331,1.456
mp-1035613,LiMg14WO16,0.051561178,2.3137
mp-1210819,LiMg2H7Os,5.77E-06,3.3071
mp-643276,LiMg2H7Ru,0,3.151
mp-1038204,LiMg30AlO32,0.008093283,4.4757
mp-1040014,LiMg30BiO32,0.036200101,3.2822
mp-1040125,LiMg30BO31,0.085258525,2.3588
mp-1040099,LiMg30BO32,0.063567837,4.2494
mp-1037086,LiMg30CoO32,0.009159861,2.1807
mp-1040079,LiMg30CrO32,0.003175574,3.8003
mp-1037677,LiMg30FeO32,0.002155808,2.8286
mp-1040051,LiMg30GaO32,0.007118929,4.2398
mp-1038038,LiMg30MnO32,0.003865998,1.5303
mp-1040012,LiMg30SbO32,0.039806807,2.6566
mp-1040082,LiMg30WO32,0.022518781,3.1002
mp-1020109,LiMg3P3O11,0,5.3095
mp-1222638,LiMg4Al(MoO4)6,0,3.4516
mp-696057,LiMg4H13Os2,1.65E-05,3.3137
mp-559155,LiMg4V3O12,0.002238842,3.0354
mp-1031514,LiMg6AlO8,0.06045541,3.4881
mp-1031034,LiMg6CrO8,0.044029539,1.2919
mp-1032467,LiMg6FeO8,0.025679222,1.5393
mp-1031142,LiMg6GaO8,0.049103884,2.4295
mp-1031191,LiMg6WO8,0.092964664,1.3883
mp-1222672,LiMgAl(MoO4)3,0,3.5881
mp-532676,LiMgAl3(SeO4)6,0.008619837,2.9775
mp-1265272,LiMgAl3(SO4)6,0.010881153,5.8981
mp-1193222,LiMgAlF6,0,7.5661
mp-1193498,LiMgAlH6,0,3.3555
mp-12558,LiMgAs,0,1.3723
mp-8870,LiMgAsO4,0.007209538,3.4544
mp-866665,LiMgB3(H9N)2,0.061960014,6.5113
mp-1222299,LiMgBN2,0,2.6464
mp-1222326,LiMgCoF6,0.069150225,2.4806
mp-694995,LiMgCr3(SO4)6,0.007706539,2.4919
mp-769552,LiMgCr3Se2(SO6)4,0.00172019,2.2407
mp-1222589,LiMgH14Cl3O7,0.001510532,5.3806
mp-23736,LiMgH3,0.008794132,4.0494
mp-866640,LiMgH6Ir,0,3.376
mp-558897,LiMgIn(MoO4)3,0,3.1865
mp-37906,LiMgN,0,2.2707
mp-36111,LiMgP,0,1.5391
mp-9625,LiMgPO4,0,5.4297
mp-1207082,LiMgSb,0,1.4438
mp-1222350,LiMgSO4F,0.01124014,5.9657
mp-560157,LiMgVO4,0,3.4826
mp-1295192,LiMn(CO3)2,0,0.905
mp-26019,LiMn(PO3)3,0,3.9251
mp-26983,LiMn(PO3)4,0,1.3434
mp-849757,LiMn(Si2O5)2,0.069268852,2.6047
mp-757422,LiMn(SiO3)2,0.059981008,0.7142
mp-759206,LiMn10(PO4)7,0.077546549,3.4155
mp-849746,LiMn2(BO3)2,0.07318839,3.2148
mp-752632,LiMn2(CO3)4,0.07516487,0.9916
mp-1176681,LiMn2(CoO4)2,0.070814618,1.1821
mp-31961,LiMn2(PO3)5,0.037849278,4.0046
mp-753476,LiMn2(PO4)2,0.070129749,0.8097
mp-26061,LiMn2(PO4)3,0.00933144,0.7511
mp-775739,LiMn28O56,0.06669267,1.3066
mp-1176665,LiMn2CoO6,0.051333666,1.3976
mp-779085,LiMn2F5,0.031331481,3.0025
mp-763784,LiMn2F6,0.065835912,0.7874
mp-763425,LiMn2F7,0.015322751,1.0465
mp-753244,LiMn2F9,0.014044369,2.2679
mp-25284,LiMn2NiO6,0.069044016,1.3418
mp-753612,LiMn2O2F3,0.028821452,0.6333
mp-1639950,LiMn2O3,0.043099287,0.5482
mp-753835,LiMn2O3F,0.024632955,0.7729
mp-1176656,LiMn2O4,0.045545721,1.0523
mp-756757,LiMn2OF3,0.067814995,1.4924
mp-761120,LiMn2OF5,0.044600274,0.5221
mp-1235619,LiMn2P2(H2O5)2,0.020460008,0.7676
mp-850441,LiMn2P2H9O13,0.058098377,1.0564
mp-755339,LiMn2P2HO8,0.0369973,3.418
mp-780733,LiMn2P2HO9,0.030472286,0.6134
mp-26977,LiMn2P3O10,0,3.7862
mp-25829,LiMn2P3O11,0.04092802,1.0123
mp-780468,LiMn2P4H11O18,0.043060409,4.4277
mp-26188,LiMn2P5O16,0.003087584,1.2244
mp-776397,LiMn2PO5,0.093318571,1.83
mp-1210977,LiMn2TeO6,0,1.0634
mp-1235517,LiMn2V4O8,0.09293123,1.2514
mp-753705,LiMn3(O2F)2,0.095750491,0.5028
mp-753440,LiMn3(OF3)2,0.094472282,1.2142
mp-690617,LiMn3Al2(HO2)6,0,0.5024
mp-756504,LiMn3CrO8,0.057820236,0.7921
mp-767065,LiMn3F10,0.054048244,0.5045
mp-1196748,LiMn3H6(SeO3)8,0,1.6131
mp-1277859,LiMn3O4,0.052649342,0.6651
mp-1176672,LiMn3O6,0.01821708,0.5949
mp-761133,LiMn3OF5,0.082018434,2.2655
mp-759026,LiMn3P2(HO3)4,0.038350388,0.8147
mp-780879,LiMn3P3(HO6)2,0.01009968,3.4415
mp-780780,LiMn3P3O11,0.057098618,3.2093
mp-26393,LiMn4(PO4)3,0.028742485,3.3657
mp-1101573,LiMn4P7O24,0.019153919,0.9862
mp-759188,LiMn5P3O13,0.067008607,2.0967
mp-26005,LiMn6P7O24,0,3.3554
mp-26065,LiMn6PO12,0.012939516,0.7654
mp-753079,LiMn7(OF3)3,0.076006449,1.3932
mp-765136,LiMn8F33,0.027985485,1.0548
mp-755509,LiMnAlO3,0.099702764,1.8152