MP ID,Formula,Energy Above Hull (eV),Band Gap (eV)
mp-772977,Ba10LiW7O30,0.061932438,1.4584
mp-6075,Ba2Li(BO2)5,0,4.9517
mp-555958,Ba2Li3(PO3)7,0.000288834,5.4511
mp-1228762,Ba2Li3Ho3(WO4)8,0.059323165,3.2447
mp-1228731,Ba2Li3La3(MoO4)8,0.020441723,2.509
mp-567658,Ba2Li3NbN4,0.005577901,2.2754
mp-573677,Ba2Li3TaN4,0,2.2751
mp-1228739,Ba2Li3Y3(MoO4)8,0.047419116,2.2428
mp-1228802,Ba2Li3Y3(WO4)8,0.056808996,2.8751
mp-1197768,Ba2LiAl(CN2)4,0,4.1281
mp-1207120,Ba2LiIO6,0,2.0756
mp-1235162,Ba2LiMn2O6,0.07345597,0.7942
mp-10555,Ba2LiReN4,0,1.7902
mp-6270,Ba2LiReO6,0,1.8198
mp-760067,Ba2LiVP2O9,0.092964302,1.8934
mp-1197500,Ba3Li2B10(H3O11)2,0.002180377,5.4423
mp-699932,Ba3Li2Mo4P6(ClO14)2,0.008504014,2.1138
mp-581188,Ba3Li2V2Cl4O7,0.010180828,3.1302
mp-677212,Ba3LiTa3Ti5O21,0.002260264,2.2708
mp-766108,Ba3LiTi5(SbO7)3,0.029786569,2.3975
mp-766208,Ba3LiTi5Nb3O21,0.006650028,1.8373
mp-1214461,Ba4Li(BiO4)3,0,0.5661
mp-1214440,Ba4Li(BN2)3,0.022537674,2.4764
mp-7971,Ba4Li(SbO4)3,0,1.4544
mp-762032,Ba4Li4Ti19O44,0.045457547,2.3023
mp-15472,Ba4LiCu(CO5)2,0,0.9265
mp-1197353,Ba4LiGa5Se12,0.022521868,1.7354
mp-6011,Ba4LiMo2N7,0,1.5654
mp-18274,Ba4LiNb3O12,0,2.5798
mp-16792,Ba4LiTa3O12,0,3.1133
mp-6665,Ba4LiW2N7,0,1.763
mp-1228258,Ba5Li2(TeO5)3,0,1.2112
mp-557816,Ba5Li2(WO5)3,0,2.2925
mp-1228411,Ba5Li2U3O15,0,1.2725
mp-1199258,Ba5LiGaN3F5,0.006158794,1.3588
mp-1228175,Ba5LiMo2N7Cl2,0,2.3448
mp-775484,Ba6Li2Ti16O39,0.015576935,2.1144
mp-1235210,Ba6LiNb2Ir(ClO6)2,0.056789801,1.6882
mp-1228109,Ba8Li13GaSb12,0.001575085,0.7191
mp-559419,Ba9LiSi10C(ClO4)7,0.001721252,4.6715
mp-17672,BaLi(B3O5)3,0,5.7835
mp-557892,BaLi(BS2)3,0,2.7298
mp-1019547,BaLi2Mg(PO4)2,0.008847377,5.6382
mp-1103771,BaLi2MnV2O8,0,2.7197
mp-756841,BaLi2NiO3,0.083559524,2.2093
mp-6175,BaLi2P2O7,0.00206884,5.3618
mp-558310,BaLi2SiO4,0,4.3896
mp-558083,BaLi2Ti6O14,0,2.8908
mp-776559,BaLi4NiO4,0.052374265,2.6893
mp-778878,BaLi4O3,0.086320239,3.3976
mp-543044,BaLiAlF6,0,7.3161
mp-10616,BaLiAs,0,0.5928
mp-6499,BaLiBO3,0,4.1341
mp-554076,BaLiBS3,0,2.1531
mp-759611,BaLiCaVP2O9,0.060479662,2.0007
mp-17034,BaLiCoF6,0.040099868,2.2721
mp-560949,BaLiCrF6,0,2.1413
mp-10250,BaLiF3,0.02190322,6.5643
mp-23818,BaLiH3,0,2.2146
mp-40189,BaLiLaTeO6,0.030170702,2.9506
mp-1227900,BaLiMg2AlSi3(O5F)2,0.01582651,4.3189
mp-1247100,BaLiN,0.038462658,0.5322
mp-13277,BaLiP,0,0.9631
mp-41219,BaLiPrTeO6,0.065872023,3.1399
mp-10485,BaLiSb,0,0.6947
mp-555845,BaLiZr2F11,0.005116611,5.7451
mp-694942,BaNa5LiCo5F18,0.058583188,2.0206
mp-1019555,BaNaLi3(BO2)6,0,5.2185
mp-1019606,Cs2Li2B2P4O15,0,5.4224
mp-8313,Cs2Li2GeO4,0,3.4744
mp-504849,Cs2Li2SiO4,0,3.8531
mp-8294,Cs2Li2TiO4,0,3.9554
mp-966802,Cs2Li3(BO2)5,0.006559991,4.5354
mp-1196318,Cs2Li3B3P6(PbO12)2,0,5.0959
mp-571409,Cs2Li3Br5,0.005485786,4.4362
mp-560088,Cs2Li3F5,0.091127606,5.6184
mp-555140,Cs2Li3GaO4,0,3.6593
mp-1080534,Cs2Li3I5,0.01145273,3.8569
mp-1019607,Cs2Li5(BO2)7,0.003907452,3.9805
mp-13634,Cs2LiAl3F12,0,7.0872
mp-1206808,Cs2LiAlF6,0,6.8832
mp-14364,Cs2LiAsO4,0,3.7302
mp-1111865,Cs2LiBiBr6,0.011177394,2.9154
mp-1111851,Cs2LiBiCl6,0.009754944,3.6075
mp-1110976,Cs2LiBiF6,0.005219256,4.8946
mp-1112838,Cs2LiBiI6,0.03142152,1.9323
mp-1095674,Cs2LiBr3,0.000342406,4.3476
mp-1110975,Cs2LiCeF6,0.004648866,0.5299
mp-571390,Cs2LiCl3,0.024859439,5.13
mp-6884,Cs2LiCo(CN)6,0.017379223,4.2816
mp-1226357,Cs2LiCr3F12,0,3.1832
mp-1206440,Cs2LiCrF6,0,4.3359
mp-1113018,Cs2LiDyCl6,0,5.0917
mp-1111446,Cs2LiErCl6,0,5.1941
mp-553988,Cs2LiF3,0.048286329,5.659
mp-6654,Cs2LiGaF6,0,6.1433
mp-1112624,Cs2LiGdCl6,0,2.782
mp-1103949,Cs2LiI3,0.013564423,3.7682
mp-989405,Cs2LiInBr6,0,1.5789
mp-571527,Cs2LiInCl6,0,3.2276
mp-1113016,Cs2LiInF6,0.004074149,5.227
mp-574653,Cs2LiIr(CN)6,0,5.4079
mp-1245352,Cs2LiLaBr6,0.013841643,3.7835
mp-1112681,Cs2LiLaCl6,0.01695253,4.4927
mp-570379,Cs2LiLuCl6,0,5.3389
mp-18722,Cs2LiMnO4,0,1.5915
mp-1111847,Cs2LiMoBr6,0.047541045,1.2684
mp-1110989,Cs2LiMoCl6,0.03343741,1.5978
mp-1110974,Cs2LiMoF6,0,4.8178
mp-1112836,Cs2LiMoI6,0.085883738,0.9856
mp-573030,Cs2LiNbS4,0,2.4582
mp-1194993,Cs2LiNd(BO3)2,0,4.4762
mp-1111845,Cs2LiNdBr6,0,3.9972
mp-1111841,Cs2LiNdCl6,0.00015502,4.8227
mp-1110973,Cs2LiNdF6,0.03978248,7.055
mp-1112834,Cs2LiNdI6,0,2.9743
mp-989536,Cs2LiNF6,0.002199599,2.467
mp-1111839,Cs2LiPrBr6,0,3.9721
mp-1111836,Cs2LiPrCl6,0.014560851,4.7971
mp-1110972,Cs2LiPrF6,0.023270646,6.9993
mp-1113008,Cs2LiPrI6,0,2.9609
mp-1111835,Cs2LiSbBr6,0.022989746,2.3396
mp-1111439,Cs2LiSbCl6,0.018715156,2.9508
mp-1110971,Cs2LiSbF6,0.089258367,4.1258
mp-1112673,Cs2LiSbI6,0.035539827,1.7376
mp-1189625,Cs2LiScCl6,0,3.8154
mp-1113081,Cs2LiScF6,0.022663993,6.6268
mp-1112671,Cs2LiSmCl6,0,4.9508
mp-1112669,Cs2LiTbCl6,0,5.0434
mp-1112670,Cs2LiTlBr6,0.030591878,0.5505
mp-1112999,Cs2LiTlCl6,0.018131119,1.5236
mp-989562,Cs2LiTlF6,0.010150474,3.4749
mp-1235075,Cs2LiTm2(WO4)4,0.065564648,2.2391
mp-1112998,Cs2LiTmCl6,0,5.2527
mp-1226312,Cs2LiV3F12,0,2.1634
mp-541190,Cs2LiVO4,0,3.9955
mp-510338,Cs2LiVS4,0,1.5878
mp-1111833,Cs2LiYBr6,0,4.0508
mp-567652,Cs2LiYCl6,0,4.8986
mp-1110969,Cs2LiYF6,0.015688844,7.2663
mp-1112663,Cs2LiYI6,0,3.0085
mp-1019609,Cs2Sr2Li3B3(PO4)6,0,5.6029
mp-1213966,Cs3Li2Al(MoO4)4,0.006696491,4.2898
mp-1080005,Cs3Li2Br5,0.018307364,4.5306
mp-570756,Cs3Li2Cl5,0.026562725,5.0892
mp-558728,Cs3Li2F5,0.043857673,5.7273
mp-1213707,Cs3Li2Fe(MoO4)4,0.016628485,2.9686
mp-573196,Cs3Li2Ga(MoO4)4,0.005336923,4.0242
mp-1181918,Cs3Li2I5,0.016587095,3.7443
mp-1019615,Cs3Li4(BO2)7,0,4.5217
mp-1189357,Cs3LiBr4,0.042431251,4.035
mp-606711,Cs3LiCl4,0.059352564,4.6835
mp-559766,Cs3LiF4,0.012425062,5.6548
mp-569238,Cs3LiI4,0.018203996,3.8043
mp-1213704,Cs3LiPb4,0,0.7565
mp-607931,Cs3NaLi2(BO3)2,0,3.454
mp-15079,Cs4KLiGa2F12,0,6.0451
mp-562394,Cs4Li2(Si2O5)3,0,4.1657
mp-1019708,CsBaLiP2O7,0,4.8878
mp-17718,CsKNa2Li12(SiO4)4,0,4.7221
mp-720245,CsKNaLi13(SiO4)4,0.081428313,3.8945
mp-1019715,CsLi(B3O5)2,0,5.2081
mp-642740,CsLi(H2N)2,0,1.997
mp-560667,CsLi(PO3)2,0,5.2843
mp-697181,CsLi2(HO)3,0,4.1415
mp-606680,CsLi2Br3,0.005660853,4.2829
mp-559238,CsLi2BS3,0,3.0936
mp-1190687,CsLi2Cl3,0,5.326
mp-606604,CsLi2F3,0.057683143,7.0403
mp-1197930,CsLi2Gd4(BO3)5,0,2.5666
mp-569055,CsLi2I3,0.017335858,4.4204
mp-580554,CsLi3Br4,0.050124007,4.1475
mp-571666,CsLi3Cl4,0.028355159,5.2744
mp-555439,CsLi3F4,0.066276816,6.7384
mp-1184020,CsLi3I4,0.010985521,4.2797
mp-1019716,CsLi4(BO2)5,0.00274445,4.4885
mp-555082,CsLi5(BO3)2,0,3.9878
mp-1195536,CsLi5Mn(P2O7)2,0,3.959
mp-18704,CsLiBeF4,0,7.0366
mp-23057,CsLiBr2,0,4.1375
mp-1188344,CsLiCl2,0,5.1073
mp-561778,CsLiCrO4,0,2.7465
mp-7594,CsLiF2,0,6.2744
mp-699459,CsLiH4S2(NO3)2,0.064563888,5.5265
mp-755891,CsLiH4SO5,0.047502466,4.3863
mp-1190087,CsLiI2,0.023754327,3.7263
mp-752778,CsLiMnP3HO10,0.04867523,2.0233
mp-1225894,CsLiMnS2,0,0.8093
mp-551629,CsLiMoO4,0,4.424
mp-1178393,CsLiO,0.058514978,2.3972
mp-6726,CsLiSO4,0,5.378
mp-1178391,CsLiWO4,0,4.4294
mp-1225887,CsLiZnS2,0,2.5019
mp-17125,CsNa3Li12(GeO4)4,0.000568081,3.7823
mp-1225077,K11Li4Ta15O45,0.057824469,2.1207
mp-560465,K11LiMn4O16,0,1.2347
mp-1198663,K2Li(H2N)3,0,2.3848
mp-504806,K2Li14Pb3O14,0,1.9157
mp-17208,K2Li14Zr3O14,0,4.2801
mp-761245,K2Li2CoO4,0.019667675,1.0448
mp-762240,K2Li2TiO4,0.01996281,4.2118
mp-1019778,K2Li3B(P2O7)2,0,5.5903
mp-757868,K2Li3CoO4,0,1.2641
mp-766413,K2Li3CrO4,0.070719316,1.0504
mp-16955,K2Li3FeO4,0,3.0917
mp-17774,K2Li3GaO4,0,3.3151
mp-774432,K2Li3NiO4,0,1.4741
mp-556996,K2LiAlF6,0,7.2639
mp-23774,K2LiAlH6,0,2.5761
mp-6450,K2LiAlP2,0,1.8853
mp-1111928,K2LiAsF6,0.002892717,4.5591
mp-1019782,K2LiB(PO4)2,0,5.3944
mp-1110902,K2LiBiBr6,0.040128528,2.9174
mp-1110869,K2LiBiCl6,0,3.6182
mp-1110838,K2LiBiF6,0.055445205,4.8822
mp-1110941,K2LiBiI6,0.078309454,1.9247
mp-557632,K2LiBO3,0,3.5239
mp-1195085,K2LiC3(SN)3,0.007124122,4.4492
mp-1112201,K2LiCeF6,0.088923485,0.5648
mp-1111927,K2LiCrF6,0,4.1644
mp-1207213,K2LiCuF6,0,0.9248
mp-1111259,K2LiDyCl6,0.025919943,5.0198
mp-1111256,K2LiErCl6,0.020663619,5.0496
mp-1112185,K2LiFeF6,0,3.9473
mp-756221,K2LiFeO3,0.027620603,2.0402
mp-9703,K2LiGaAs2,0,0.7546
mp-1111112,K2LiGaF6,0,6.1271
mp-1111673,K2LiGdCl6,0.036905918,2.8434
mp-1197982,K2LiIn(MoO4)3,0,3.7751
mp-1111672,K2LiInCl6,0.015773579,2.865
mp-1111671,K2LiInF6,0,5.2984
mp-1111926,K2LiIrF6,0.018296613,2.0832
mp-1111257,K2LiLaCl6,0.071885849,4.554
mp-1111126,K2LiLuCl6,0,5.0952
mp-1290836,K2LiMn2O4,0.091770437,1.1093
mp-759934,K2LiMnPCO7,0.061523401,3.2914
mp-1110868,K2LiMoBr6,0.055488526,1.2722
mp-1110855,K2LiMoCl6,0.037877212,1.4862
mp-1110837,K2LiMoF6,0,4.4161
mp-1110940,K2LiMoI6,0.08526148,0.974
mp-695505,K2LiNb6(PO8)3,0,2.2981
mp-759900,K2LiNbO4,0,4.1581
mp-1110901,K2LiNdBr6,0.062297647,3.973
mp-1110867,K2LiNdCl6,0.062181095,4.8605
mp-1110836,K2LiNdF6,0.088220108,6.3791
mp-1110939,K2LiNdI6,0.069774855,2.9488
mp-1110900,K2LiPrBr6,0.068903642,3.9531
mp-1110866,K2LiPrCl6,0.069686381,4.8264
mp-1110938,K2LiPrI6,0.07557773,2.9382
mp-1111665,K2LiRhF6,0,1.7665
mp-1110899,K2LiSbBr6,0.024960146,2.3188
mp-1110865,K2LiSbCl6,0.039365219,2.9339
mp-1110835,K2LiSbF6,0.073283825,4.1086
mp-1110937,K2LiSbI6,0.073728096,1.7108
mp-1111932,K2LiScCl6,0.008983276,3.7414
mp-1111110,K2LiScF6,0,6.7733
mp-1111244,K2LiSmCl6,0.049609306,4.9171
mp-680450,K2LiSn4,0,0.6937
mp-684817,K2LiTa6(PO8)3,0,3.0471
mp-1110864,K2LiTbCl6,0.032632476,4.9973
mp-1111242,K2LiTlBr6,0.069473285,0.5593
mp-1111660,K2LiTlCl6,0.03770454,1.5798
mp-1111658,K2LiTlF6,0.005783713,3.5058
mp-1111657,K2LiTmCl6,0.015268235,5.0647
mp-1203349,K2LiV5H10O19,0.024092448,2.5943
mp-558369,K2LiVO4,0,3.9761
mp-761139,K2LiVPO6,0.083934747,4.1096
mp-767165,K2LiVS4,0,1.5185
mp-1110898,K2LiYBr6,0.023624169,4.036
mp-1110863,K2LiYCl6,0.026136443,4.9248
mp-1110834,K2LiYF6,0.046550408,6.6971
mp-1110936,K2LiYI6,0.061759065,2.9702
mp-1224604,K2Na4Li2Ti4Mn3Fe(SiO3)16,0.006681589,1.7582
mp-1195057,K3Ba3Li2Al4B6O20F,0,4.1017
mp-766938,K3Li2Nb5O15,0.010796768,2.2722
mp-560739,K3Li3TeO6,0,2.6948
mp-1211905,K3LiGe4,0,1.0603
mp-694935,K3LiMg4(Si2O5)6,0,4.7657
mp-725121,K3LiMn4(MoO4)6,0,2.576
mp-1019794,K3LiP2O7,0,4.6083
mp-1212210,K3LiPb4,0.001038794,0.6083
mp-28316,K3LiSi4,0.00683226,1.5222
mp-561474,K3LiSiO4,0,4.173
mp-755707,K3LiTi7O16,0.003254682,2.8256
mp-559875,K3Na2LiTeO6,0,2.2126
mp-849406,K4Li3Nb18P12(WO42)2,0.002820695,0.8404
mp-1178153,K4Li5Cr2O8,0.083344305,1.079
mp-760896,K4Li5Mn2O8,0.081332442,0.5408
mp-709186,K4LiH3(SO4)4,0,5.394
mp-558483,K4LiIO6,0,2.0858
mp-557798,K5Li2NdF10,0,6.4522
mp-1196988,K5Li2PrF10,0,6.4766
mp-766047,K5Li3Ti8(AsO5)8,0.008487035,3.0181
mp-557473,K5LiGe2O7,0,2.9956
mp-3949,K7LiSi8,0,1.6927
mp-759598,K8Li13(FeO4)4,0.075221498,1.7424
mp-850924,K8Li9Cr4O16,0.068670087,0.7693
mp-556215,K9Li3I2O13,0.053106658,0.763
mp-1195894,K9Li3Nd3(BO3)7,0,3.7614
mp-1223441,KBaLiZnF6,0.007384823,5.5617
mp-1197966,KLi(BH4)2,0.002864599,6.1328
mp-1190477,KLi(C2N3)2,0.088482849,4.5375
mp-559142,KLi(PO3)2,0,5.2914
mp-1178148,KLi(WO3)3,0.035912371,1.0924
mp-1188395,KLi2(HO)3,0,4.2639
mp-28994,KLi2As,0,0.6878
mp-558628,KLi2BO3,0,3.999
mp-1297690,KLi2FeO3,0.048726849,2.1349
mp-780874,KLi2Mn2O4,0.095594398,0.7207
mp-761146,KLi2MnPCO7,0.069951223,3.0119
mp-759715,KLi2Sb(PO4)2,0.082224716,3.4286
mp-641919,KLi3Ca7Ti2Si12(O18F)2,0,3.5221
mp-18002,KLi3GeO4,0,3.9368
mp-559106,KLi3PbO4,0,1.6931
mp-6844,KLi3Si12(SnO15)2,0,4.4356
mp-1211498,KLi3SiO4,0,4.8757
mp-1211546,KLi3TiO4,0,4.6824
mp-16055,KLi3Zr2(Si2O5)6,0,5.1498
mp-557268,KLi4AlO4,0,3.7512
mp-756262,KLi4CrO5,0.077983385,1.0179
mp-556902,KLi4NbO5,0,3.777
mp-23582,KLi6BiO6,0,1.4216
mp-9059,KLi6TaO6,0,4.3852
mp-707956,KLi7(H2N)8,0.021579545,2.6055
mp-6648,KLiB4O7,0,5.0827
mp-6253,KLiBeF4,0,6.8618
mp-562137,KLiCO3,0,4.5495
mp-753408,KLiCoO2,0.009855604,1.262
mp-555206,KLiCrO4,0,2.8534
mp-1211571,KLiDy2(MoO4)4,0.017890152,3.2809
mp-1211461,KLiDyF5,0,7.3887
mp-1211563,KLiEr2(MoO4)4,0.014006997,3.2596
mp-1211459,KLiErF5,0.001486168,7.4694
mp-1211850,KLiGd2(MoO4)4,0.016958213,2.9099
mp-1211585,KLiGdF5,0,4.5921
mp-760342,KLiH2WO5,0.004747121,4.9734
mp-699460,KLiH4S2(NO3)2,0.06356587,5.1939
mp-1211688,KLiHo2(MoO4)4,0.018801413,3.226
mp-1211494,KLiHoF5,0,7.378
mp-1211661,KLiLu2(MoO4)4,0.046840249,3.1597
mp-1211480,KLiLuF5,0,7.4932
mp-1040366,KLiMg30O31,0.072488903,2.6691
mp-1189006,KLiMn2(SiO3)4,0.000631326,2.041
mp-770699,KLiMnO2,0.027014696,1.067
mp-759967,KLiMnP3HO10,0.044531038,3.4165
mp-753940,KLiMnS2,0,0.5546
mp-1199453,KLiMoO4,0,4.4886
mp-581225,KLiNd2(MoO4)4,0,3.2028
mp-774921,KLiNiO2,0.056536961,1.791
mp-559612,KLiO,0.012296178,2.3803
mp-690708,KLiPH2O4F,0.038164511,4.7556
mp-8430,KLiS,0,3.0571
mp-8756,KLiSe,0,2.5249
mp-558102,KLiSi2O5,0,4.7068
mp-1211510,KLiSm2(MoO4)4,0.008683669,3.3373
mp-1178142,KLiSnO2,0.030246993,2.0401
mp-6800,KLiSO4,0,5.3423
mp-1211713,KLiTb2(MoO4)4,0.017209554,3.3146
mp-1211435,KLiTbF5,0,7.3874
mp-4495,KLiTe,0,2.4134
mp-776444,KLiTi2(PO5)2,0.019701434,3.1523
mp-1211810,KLiTm2(MoO4)4,0.01439243,3.2004
mp-1194722,KLiTmF5,0.002222004,7.3809
mp-1212005,KLiWO4,0,4.8086
mp-1211586,KLiY2(MoO4)4,0.030081301,3.2822
mp-556237,KLiYF5,0.000250228,7.1638
mp-1223469,KLiZn3O4,0,1.643
mp-551092,KLiZnO2,0,2.0766
mp-554164,KLiZnP2O7,0,4.2904
mp-774907,KLiZnS2,0,2.4361
mp-16282,KNa2Li3Cr2(Si2O5)6,0,4.3993
mp-16283,KNa2Li3Fe2(Si2O5)6,0,4.6926
mp-510635,KNa2LiTi2Fe2(SiO3)8,0,2.0557
mp-1223707,KNa2LiTi2MnFe(SiO3)8,0.001986497,2.1473
mp-851118,KNa2LiZr2(Si2O5)6,0.015780769,4.7587
mp-14484,KNaLi2(SO4)2,0,5.2971
mp-941221,Li(BH)5,0.055241782,4.9946
mp-1198726,Li(BH)6,0,5.6126
mp-774082,Li(CoO2)2,0,0.6659
mp-759301,Li(CoO2)3,0.015680742,1.1138
mp-1290247,Li(CoO2)4,0.016535531,1.1774
mp-997515,Li(Fe2O3)4,0.051568438,0.8754
mp-25576,Li(MoO2)2,0.015883904,1.4741
mp-774941,Li(NiO2)2,0,0.7825
mp-1222821,Li(NiO2)3,0.056066059,0.7591
mp-23122,Li10B14Cl2O25,0.002686595,6.4019
mp-28989,Li10BrN3,0,1.3667
mp-763575,Li10Co(SiO5)2,0.0510584,1.9617
mp-530277,Li10Co11O21,0.02607877,0.5341
mp-1185179,Li10Co4O9,0.0315344,1.4774
mp-1263657,Li10Cr(SiO5)2,0.093614434,0.6955
mp-1178099,Li10Cr3Fe3(NiO8)2,0.064613143,1.7259
mp-756983,Li10Cu(SiO5)2,0.057349649,2.5039
mp-758900,Li10Fe(SiO5)2,0.054992141,1.8141
mp-770854,Li10Fe3Sb7O24,0.082739432,0.7913
mp-761094,Li10FeCo9O20,0.05560467,1.9631
mp-632815,Li10Ge(PO6)2,0.069883411,4.4932
mp-696138,Li10Ge(PS6)2,0.018760534,2.3653
mp-721239,Li10Ge(PSe6)2,0,1.3131
mp-849374,Li10Mg12Fe(PO4)12,0.003092692,4.4803
mp-530738,Li10Mg7Cl24,0.010825446,4.4386
mp-780653,Li10Mn(SiO5)2,0.057021651,0.9482
mp-777350,Li10Mn2Fe3Co3O16,0.086565746,0.7413
mp-760787,Li10Mn2V3Cr3O16,0.062420731,1.8133
mp-777562,Li10Mn3F16,0.050685718,3.3565
mp-1178101,Li10Sc9Fe(SiO3)20,0.005150644,3.0593
mp-721255,Li10Si(PO6)2,0.091915972,5.1063
mp-720509,Li10Si(PS6)2,0.006719743,2.5638
mp-721253,Li10Si(PSe6)2,0,1.4633
mp-767066,Li10Si2NiO10,0.054348121,2.3662
mp-553950,Li10Si2PbO10,0.003691897,2.9603
mp-721238,Li10Sn(PO6)2,0.099351461,3.2726
mp-721236,Li10Sn(PS6)2,0.023375088,2.339
mp-721252,Li10Sn(PSe6)2,0,1.3659
mp-767498,Li10Ti11Nb6O42,0.036060422,1.8835
mp-778830,Li10Ti2Fe3Co3O16,0.096587142,1.4661
mp-774319,Li10Ti2Fe3Ni3O16,0.094089867,1.2175
mp-772260,Li10Ti4O13,0.08404758,3.9595
mp-765779,Li10V(SiO5)2,0.090998872,0.8536
mp-760983,Li10V5Cr3O16,0.080728988,0.6901
mp-1147695,Li10Zn(PS4)4,0.005069963,2.7251
mp-768947,Li10Zn3(GeO4)4,0.013148021,3.1107
mp-3297,Li10Zn4O9,0,2.329
mp-1147627,Li10Zn7(PS4)8,0.00514265,2.6681
mp-769470,Li11Fe(WO4)7,0.045894302,2.8156
mp-766960,Li11Fe12(BO3)12,0.015141317,1.0163
mp-694909,Li11Fe3B24(PbO24)2,0.007825164,1.1731
mp-1178085,Li11Fe5(OF11)2,0.034065664,2.3187
mp-776099,Li11Fe6F29,0.090206146,3.2092
mp-769524,Li11Nb4(Ni3O8)3,0.064707887,1.2261
mp-758440,Li11V16O32,0.037512302,0.6774
mp-849591,Li11V6O5F19,0.069940653,1.0274
mp-849384,Li11V8(PO4)12,0.006442915,0.8757
mp-766567,Li12Co3NiP4(CO7)4,0.044179028,2.84
mp-766547,Li12CoNi3P4(CO7)4,0.060168541,2.9723
mp-1178129,Li12Cr3CoP4(CO7)4,0.074248175,1.5513
mp-766533,Li12Cr3FeP4(CO7)4,0.070451192,2.4471
mp-1178088,Li12Cr3NiP4(CO7)4,0.068407198,2.3781
mp-766700,Li12CrCo3P4(CO7)4,0.053589666,1.2044
mp-766534,Li12CrFe3P4(CO7)4,0.054632408,2.4316
mp-770660,Li12CrGa11O24,0.049245097,1.3461
mp-1178083,Li12CrNi3P4(CO7)4,0.050661371,1.6346
mp-1178117,Li12Fe3CoP4(CO7)4,0.044083242,2.1717
mp-766564,Li12Fe3NiP4(CO7)4,0.046225143,3.1361
mp-766539,Li12FeNi3P4(CO7)4,0.043298866,3.0772
mp-775195,Li12Mn11Fe(PO4)12,0.001875037,3.6905
mp-753075,Li12Mn2O9,0.069539264,0.724
mp-1178081,Li12Mn3CoP4(CO7)4,0.052797353,2.0535
mp-766531,Li12Mn3CrP4(CO7)4,0.061752429,2.3728
mp-767262,Li12Mn3FeP4(CO7)4,0.053362973,3.6464
mp-1178080,Li12Mn3NiP4(CO7)4,0.052910392,2.866
mp-887443,Li12Mn3V5(PO4)12,0.023278053,0.5555
mp-766509,Li12Mn3VP4(CO7)4,0.059866221,2.6856
mp-1178090,Li12Mn7V(PO4)12,0.011519824,0.6222
mp-766814,Li12MnCo3P4(CO7)4,0.047109558,2.0062
mp-1178079,Li12MnCr3P4(CO7)4,0.070045042,2.6193
mp-766510,Li12MnFe3P4(CO7)4,0.048218237,3.378
mp-766513,Li12MnNi3P4(CO7)4,0.04561207,2.736
mp-861267,Li12MnV3P4(CO7)4,0.068292986,2.7204
mp-1199885,Li12Mo5O17,0.008728422,1.2811
mp-767604,Li12Nb14ZnO42,0.006906107,3.258
mp-759703,Li12Ni11O28,0.066434533,0.6336
mp-766588,Li12V3CoP4(CO7)4,0.066470228,0.8536
mp-766538,Li12V3CrP4(CO7)4,0.07572837,1.9742
mp-766535,Li12V3FeP4(CO7)4,0.067285107,2.3246
mp-1178087,Li12V3NiP4(CO7)4,0.065536375,2.0119
mp-766565,Li12VCo3P4(CO7)4,0.055428112,0.7799
mp-766537,Li12VCr3P4(CO7)4,0.081089594,1.9837
mp-766566,Li12VFe3P4(CO7)4,0.052558332,2.3268
mp-766677,Li12VNi3P4(CO7)4,0.049223976,1.5977
mp-759819,Li13Mn17O40,0.013613862,0.5161
mp-760049,Li13Mn3(SbO8)2,0.073469636,1.1465
mp-764234,Li13Mn3Nb2O16,0.092192822,1.0313
mp-777360,Li13V24O52,0.096895541,0.5977
mp-504263,Li14Co9(P2O7)8,0.046054876,2.1437
mp-759443,Li14Cr9(P2O7)8,0.054106571,2.7124
mp-781016,Li14Fe4O13,0.09938454,2.3295
mp-770530,Li14Mn2O9,0.047396806,2.5939
mp-756198,Li14Mn2S9,0.007765854,1.5171
mp-764848,Li14Mn5F24,0.073143231,3.5262
mp-705402,Li14Mn9(P2O7)8,0.035777263,3.7787
mp-1223420,Li14Nd5Si11N19O7F2,0.014714272,2.7504
mp-540237,Li14Ni9(P2O7)8,0.023449304,3.9337
mp-1020011,Li14P2(N2O)3,0,3.6018
mp-765044,Li14V9(P2O7)8,0.047109552,2.5301
mp-861689,Li15Cr15SiO32,0.069304471,1.3784
mp-530262,Li15Cr2N9,0,1.3186
mp-1178074,Li15Fe15SiO32,0.094956412,1.9058
mp-1201065,Li15H9N8,0.00566611,2.6967
mp-767393,Li15Ti11Nb5O42,0.027142125,2.2795
mp-1178192,Li15V6(P8O29)2,0.014503198,1.0735
mp-1245780,Li15W7N19,0.019749625,1.583
mp-849382,Li16Mn15Fe(PO4)16,0.001841759,3.4633
mp-6031,Li16Nb2N8O,0,3.3829
mp-14871,Li16Ta2N8O,0,3.4017
mp-774850,Li16V3Ga13O32,0.030751766,1.5151
mp-768424,Li17(CoO4)4,0.089647503,0.7742
mp-1246806,Li17Cl5O6,0.072054428,2.6598
mp-766611,Li17Ni11O28,0.053459304,0.7214
mp-761629,Li17V16O32,0.023542106,0.8935
mp-759194,Li19Cr4P8O35F,0.061769195,1.9694
mp-1223171,Li19V12O32,0.060488144,0.6929
mp-1178191,Li19V8(BO3)16,0.078679711,0.5949
mp-1210701,Li2(BH)11,0.098107397,3.8953
mp-758725,Li2(CoO2)3,0.022637624,1.1552
mp-705640,Li20Co21O40,0.036958623,0.547
mp-1097035,Li20Si3P3S23Cl,0.030529963,2.3076
mp-769519,Li21(FeO4)4,0.028553344,1.0675
mp-1223479,Li24(I2N)5,0.088794469,0.6148
mp-770492,Li24Mn11CrO36,0.006596766,1.2313
mp-768842,Li24Mn5Cr7O36,0.035473222,1.0553
mp-777641,Li24Mn7Cr5O36,0.031222304,1.0745
mp-1178077,Li24MnCr11O36,0.02385464,1.004
mp-779361,Li24Ti11CrO36,0.00300599,1.5561
mp-768398,Li24Ti5Cr7O36,0.015511359,0.9018
mp-768392,Li24Ti7Cr5O36,0.012362595,1.3016
mp-779077,Li24TiCr11O36,0.01957645,0.6848
mp-754466,Li2AgF3,0.035864723,2.0522
mp-760781,Li2AgF4,0.053124701,0.5617
mp-753316,Li2AgF5,0.065173076,0.679
mp-557177,Li2Al(BO2)5,0,5.6317
mp-1222897,Li2Al2CrSbO8,0.004355118,2.5534
mp-1222720,Li2Al2SiO6,0.027389919,4.6259
mp-1199564,Li2AlB5(H19N3)2,0.036723149,6.0493
mp-556655,Li2AlBO4,0.013991576,4.864
mp-1222767,Li2AlCoO4,0.034107396,0.7431
mp-1222901,Li2AlCr2SbO8,0.007102176,2.1334
mp-772267,Li2AlFeO4,0.024562117,2.9466
mp-1222936,Li2AlGaSi2(H2O5)2,0.014050929,4.349
mp-756603,Li2AlNiO4,0.084030766,1.5284
mp-767214,Li2AlPCO7,0.032645726,5.3614
mp-755460,Li2AlVO4,0.031629649,1.3214
mp-768153,Li2AsPCO7,0.064203606,4.265
mp-29410,Li2B2S5,0,2.4427
mp-30100,Li2B2Se5,0,1.7047
mp-1204484,Li2B3H14N,0.090537973,6.3948
mp-1196457,Li2B3O4F3,0,6.5735