MP ID,Formula,Energy Above Hull (eV),Band Gap (eV)
mp-1204808,Na2Li2NiP6(H4O5)6,0.043635409,1.9243
mp-849320,Na2Li2V3P2O13,0.074452681,1.7887
mp-504854,Na2Li3CoO4,0,1.4597
mp-540965,Na2Li3FeO4,0,2.9156
mp-540945,Na2Li3GaO4,0,3.2395
mp-760207,Na2Li4Co2C4SO16,0.056076611,2.6305
mp-759748,Na2Li4Mn2C4SO16,0.054955358,3.8861
mp-758866,Na2Li4Ni2C4SO16,0.054254273,2.9563
mp-694958,Na2Li5Al7Si29O72,0.059621416,3.24
mp-6604,Na2LiAlF6,0.010146467,7.6173
mp-24413,Na2LiAlH6,0,2.8917
mp-9719,Na2LiAlP2,0,1.8853
mp-556641,Na2LiAlP2H2O9,0.005472849,5.1375
mp-1110998,Na2LiAsF6,0.094597365,4.3114
mp-1020146,Na2LiB5(PO7)2,0,5.2247
mp-12240,Na2LiBe2F7,0,7.1552
mp-759615,Na2LiCaVP2O9,0.092919247,1.7406
mp-1114241,Na2LiCrF6,0.049134442,4.323
mp-1176393,Na2LiCu(PO3)4,0.043133275,2.2133
mp-1176382,Na2LiCuP2O7,0.081195119,2.3243
mp-6838,Na2LiFe(Si2O5)3,0.002028141,4.1941
mp-1176392,Na2LiFePCO7,0.020881182,1.4357
mp-9722,Na2LiGaAs2,0,0.6842
mp-1114242,Na2LiGaF6,0.019078543,5.7453
mp-1110904,Na2LiInF6,0.098333883,4.8635
mp-1114239,Na2LiIrF6,0.031441089,2.1677
mp-676447,Na2LiLa3Ti6O18,0.02549771,1.8129
mp-760056,Na2LiMn(PO3)5,0.045264884,3.6781
mp-756734,Na2LiMnPCO7,0.018531134,3.0672
mp-989504,Na2LiNF6,0,2.4767
mp-740710,Na2LiP3H8O13,0.033323141,5.0012
mp-1114234,Na2LiRhF6,0.037087603,1.8438
mp-1113900,Na2LiScF6,0.078752606,6.0598
mp-769074,Na2LiTi3Al(PO4)6,0.012859605,2.5088
mp-1110629,Na2LiTlF6,0.057615387,3.372
mp-1203476,Na2LiV5H18O23,0.015816218,2.47
mp-760057,Na2LiVPO6,0.096916282,1.9371
mp-14030,Na2LiY(Si2O5)3,0,4.6025
mp-759637,Na2SrLiVP2O9,0.078939639,1.7615
mp-1210927,Na3Li(MoO4)2,0.076917416,4.3069
mp-1020163,Na3Li2Al(SiO4)2,0.007223642,4.051
mp-775329,Na3Li2Fe5(SiO3)10,0.008298987,2.7055
mp-6711,Na3Li3Al2F12,0,7.0872
mp-21932,Na3Li3Co2F12,0.000815335,1.5477
mp-14458,Na3Li3Cr2F12,0,3.8583
mp-6247,Na3Li3Fe2F12,0,3.6235
mp-1176351,Na3Li3Fe2P2(CO7)2,0.024617313,3.8891
mp-6527,Na3Li3In2F12,0,5.2896
mp-771021,Na3Li3Mn2P2(CO7)2,0.023688818,3.5219
mp-1210682,Na3Li3Rh2F12,0,1.9933
mp-14023,Na3Li3Sc2F12,0,6.8685
mp-558769,Na3Li4Th6F31,0.009313236,6.3088
mp-556906,Na3LiBe2F8,0.007528462,6.7192
mp-775936,Na3LiCuPCO7,0.092049629,1.1912
mp-1221254,Na3LiFe4(SiO3)8,0.006940274,2.7674
mp-1221279,Na3LiGa4(SiO3)8,0.030115797,4.2259
mp-1221336,Na3LiMg4(Si2O5)6,0.005286007,4.3487
mp-759559,Na3LiMnBPO7,0.081280013,2.4324
mp-735483,Na3LiMo2(H6O7)2,0.008728227,4.6221
mp-1020164,Na3LiP2O7,0,4.8511
mp-1210400,Na3LiTi2F12,0,4.7751
mp-1205129,Na3LiTi2Si4(HO4)4,0.004383919,3.5603
mp-1221217,Na3LiV4O12,0.012196836,3.157
mp-557309,Na3LiWO5,0,3.8186
mp-1205167,Na3LiY3P3CO15F2,0,4.5183
mp-1221200,Na4Li4MnFe3P4(O4F)4,0.002187737,3.8622
mp-558455,Na4Li5(BO3)3,0,3.8255
mp-1221439,Na4Li5(WO3)10,0.054684991,1.135
mp-1221192,Na4LiNb5O15,0.02123392,2.8431
mp-1195001,Na5Li(Mo3O10)3,0,2.9755
mp-559452,Na5Li(PO4)2,0.000500995,4.3383
mp-554395,Na5Li3(TiS4)2,0,1.9652
mp-774609,Na5Li3Ti5O14,0.019835025,3.1413
mp-1220829,Na5Li3V8O24,0.012107733,3.0604
mp-768850,Na5LiCo2P2(CO7)2,0.01143108,2.404
mp-755968,Na5LiFe2P2(CO7)2,0.009503854,3.5831
mp-766215,Na5LiFe6(SiO3)12,0.005518635,2.4298
mp-554028,Na5LiMn2O8,0.015544732,1.7784
mp-754568,Na5LiMn2P2(CO7)2,0.008790275,3.3952
mp-768847,Na5LiNi2P2(CO7)2,0.009001983,3.565
mp-1101725,Na6Li3Fe6(PO4)8,0.039931085,1.4336
mp-774938,Na7Li3V10O30,0.012092767,2.8056
mp-774815,Na9Li7V16O48,0.012821928,2.807
mp-775304,Na9LiFe10(SiO3)20,0.003969308,2.7449
mp-1220728,NaLi(AsS2)2,0.00858438,1.5984
mp-1101663,NaLi15V16O48,0.021693518,3.0463
mp-9066,NaLi2AsO4,0,3.8891
mp-1020646,NaLi2B(PO4)2,0,5.8333
mp-560189,NaLi2BO3,0,3.8727
mp-760344,NaLi2CoPCO7,0.028326489,2.9398
mp-756248,NaLi2FePCO7,0.024180911,3.951
mp-694955,NaLi2La3Ti6O18,0.048756648,1.9293
mp-1667394,NaLi2MnPCO7,0.02432749,3.5988
mp-760210,NaLi2NiPCO7,0.024832527,3.5529
mp-558045,NaLi2PO4,0,5.1689
mp-5077,NaLi2Sb,0,0.6796
mp-775412,NaLi2V3O9,0.019691715,2.8431
mp-505381,NaLi3(H2N)4,0,2.5676
mp-775132,NaLi3Fe4(SiO3)8,0.010428853,2.1634
mp-1220817,NaLi3Ga4(SiO3)8,0.041766754,4.3276
mp-561254,NaLi3GeO4,0,3.6606
mp-559904,NaLi3SiO4,0,4.4978
mp-776523,NaLi3Ti2Al2(PO4)6,0.039131581,2.5061
mp-776043,NaLi3Ti2Cr2(PO4)6,0.019023959,2.6201
mp-849337,NaLi3Ti2Fe2(PO4)6,0.013982223,2.4483
mp-1220781,NaLi3V4O12,0.022405237,3.0329
mp-1221130,NaLi4(H2N)5,0.00172972,2.6774
mp-1101478,NaLi5Fe2P2(CO7)2,0.038391403,3.6574
mp-772652,NaLi5Mn2P2(CO7)2,0.046917933,3.5995
mp-1186148,NaLi5N2,0.083820643,0.5571
mp-720533,NaLi5Ti3Cr3(PO4)9,0.026707261,2.191
mp-775490,NaLi7Fe8(SiO3)16,0.010396683,2.7108
mp-1101479,NaLi9Fe10(SiO3)20,0.010930765,2.7254
mp-1203079,NaLiB2(H5N)2,0.099076751,4.0857
mp-553926,NaLiB4O7,0,5.7974
mp-1209980,NaLiBeF4,0.003454943,7.6765
mp-1220967,NaLiCdS2,0,1.6169
mp-559533,NaLiCO3,0,4.4629
mp-775900,NaLiCu(PO3)3,0.087759354,1.2606
mp-1209986,NaLiEr2F8,0,7.4719
mp-850191,NaLiFe2(SiO3)4,0.009745664,2.4304
mp-1198378,NaLiFePO4F,0.009512439,4.3042
mp-1220982,NaLiGa2(SiO3)4,0.037777797,4.2668
mp-6663,NaLiGe4O9,0.01561533,2.6592
mp-698457,NaLiH4C2O5,0.080840951,4.6163
mp-1210003,NaLiHo2F8,0,7.5674
mp-1002069,NaLiICl,0.095457986,4.1874
mp-677430,NaLiLa2Ti4O12,0.030852992,1.9969
mp-1209991,NaLiLu2F8,0,7.2608
mp-1035393,NaLiMg14O15,0.09887373,1.75
mp-1040085,NaLiMg30O31,0.043466067,2.5424
mp-1196828,NaLiMgPO4F,0,5.1228
mp-776529,NaLiMn2Fe4(PO4)6,0.029426522,1.3958
mp-775876,NaLiMnP2O7,0.043208372,3.8104
mp-760044,NaLiMnPCO7,0,0.7532
mp-504845,NaLiMo(H2O3)2,0.012502309,4.5257
mp-1200250,NaLiNiPO4F,0,4.5594
mp-755144,NaLiO,0.069303447,2.879
mp-723426,NaLiP2(H4O5)2,0.03386146,5.1291
mp-8452,NaLiS,0,2.2642
mp-28603,NaLiSe,0,2.4375
mp-1192726,NaLiSi2H4O7,0.011991265,4.8696
mp-558267,NaLiSiB3HO8,0,5.0818
mp-6783,NaLiSO4,0.00014547,5.5381
mp-8754,NaLiTe,0,2.284
mp-555420,NaLiTi3O7,0.0005713,2.6234
mp-776520,NaLiTiAl(PO4)3,0.026538071,2.5749
mp-1210006,NaLiTm2F8,0,7.552
mp-752560,NaLiV(OF)2,0.096339847,1.5423
mp-1221048,NaLiV2O6,0.000376561,3.1324
mp-558597,NaLiY2F8,0.004266286,7.3028
mp-676483,NaLiZnP2O7,0.001877349,4.0079
mp-1220972,NaLiZnS2,0,1.8298
mp-15543,NaLiZr(Si2O5)3,0,4.9281
mp-1516357,NaLiZrWO6,0.098005818,2.2652
mp-504810,Rb2Li14Pb3O14,0,1.9342
mp-8450,Rb2Li2GeO4,0,3.3651
mp-8449,Rb2Li2SiO4,0,3.8516
mp-1020705,Rb2Li3B(P2O7)2,0,5.5484
mp-1209478,Rb2Li3GaO4,0,3.5182
mp-1020664,Rb2Li5(BO2)7,0.007860332,4.2037
mp-1113747,Rb2LiAlF6,0.000632931,7.248
mp-1113748,Rb2LiAsF6,0,4.5851
mp-14363,Rb2LiAsO4,0,3.5526
mp-1110713,Rb2LiBiBr6,0.033182222,2.9149
mp-1110684,Rb2LiBiCl6,0,3.6154
mp-1110656,Rb2LiBiF6,0.011539822,4.9741
mp-1110751,Rb2LiBiI6,0.051358149,1.9334
mp-1110655,Rb2LiCeF6,0.023471474,0.5522
mp-1110750,Rb2LiCeI6,0.028900314,2.1287
mp-1113736,Rb2LiCoF6,0,2.8411
mp-567628,Rb2LiDyBr6,0,4.1439
mp-1113980,Rb2LiDyCl6,0.004542068,5.1062
mp-1113981,Rb2LiErCl6,0.000914763,5.2115
mp-1198160,Rb2LiFe(MoO4)3,0.015834444,2.6718
mp-22663,Rb2LiFeF6,0,3.6976
mp-14638,Rb2LiGaF6,0,6.1124
mp-1113979,Rb2LiGdCl6,0.009414565,2.8184
mp-1205883,Rb2LiHoCl6,0.002994602,5.1901
mp-989583,Rb2LiInCl6,0,2.4534
mp-1113733,Rb2LiInF6,0,5.2622
mp-1113710,Rb2LiIrF6,0.034208538,2.024
mp-1113975,Rb2LiLaCl6,0.043010515,4.5047
mp-1113976,Rb2LiLuCl6,0,5.2953
mp-1209597,Rb2LiMn3F12,0.000349037,1.903
mp-1110711,Rb2LiMoBr6,0.054742098,1.2695
mp-1110668,Rb2LiMoCl6,0.025341602,1.538
mp-1110654,Rb2LiMoF6,0,4.623
mp-553962,Rb2LiNbS4,0,2.306
mp-1195542,Rb2LiNd(BO3)2,0,4.2553
mp-1235477,Rb2LiNd2(WO4)4,0.035953627,2.0569
mp-1110710,Rb2LiNdBr6,0.033354054,4.001
mp-1110682,Rb2LiNdCl6,0.032891519,4.8504
mp-1110653,Rb2LiNdF6,0.050832804,6.6083
mp-1110748,Rb2LiNdI6,0.042163136,2.9632
mp-1235138,Rb2LiPr2(WO4)4,0.027930136,2.0641
mp-1110709,Rb2LiPrBr6,0.039316769,3.9853
mp-1110681,Rb2LiPrCl6,0.040829299,4.8241
mp-1110652,Rb2LiPrF6,0.062687525,6.547
mp-1110747,Rb2LiPrI6,0.047546029,2.9512
mp-1236120,Rb2LiPu(Cl2O)2,0.099597462,0.6851
mp-1206187,Rb2LiRhCl6,0,1.6499
mp-1113707,Rb2LiRhF6,0,1.7225
mp-1110708,Rb2LiSbBr6,0.032909102,2.3274
mp-1110680,Rb2LiSbCl6,0,2.9411
mp-1110651,Rb2LiSbF6,0.018361662,4.2054
mp-1110746,Rb2LiSbI6,0.052837473,1.7215
mp-1113928,Rb2LiScCl6,0,3.7539
mp-1113703,Rb2LiScF6,0,6.7042
mp-1113973,Rb2LiSmCl6,0.020677,4.9187
mp-680436,Rb2LiSn4,0,0.9014
mp-556085,Rb2LiTaS4,0,2.7182
mp-1113974,Rb2LiTbCl6,0.006419531,5.0624
mp-1114027,Rb2LiTlBr6,0,0.5529
mp-989579,Rb2LiTlCl6,0.016308628,1.5623
mp-1113693,Rb2LiTlF6,0,3.4666
mp-1113971,Rb2LiTmCl6,0,5.2728
mp-759578,Rb2LiV(PO4)2,0.091651804,2.695
mp-19123,Rb2LiVO4,0,3.664
mp-558815,Rb2LiVS4,0,1.5836
mp-1110706,Rb2LiYBr6,0,4.042
mp-1110679,Rb2LiYCl6,0.005677373,4.9273
mp-1110649,Rb2LiYF6,0,6.8909
mp-1110744,Rb2LiYI6,0.027094289,2.9884
mp-1209431,Rb3Li2Al(MoO4)4,0.015871769,4.2892
mp-1209544,Rb3Li2Ga(MoO4)4,0.016221515,4.0648
mp-1235632,Rb3LiErV2O8,0.077100158,1.1197
mp-1209665,Rb3LiPb4,0,0.6894
mp-1235065,Rb3LiTbV2O8,0.07388095,1.1276
mp-697222,Rb3LiZn2(MoO4)4,0.002276764,3.7764
mp-1235126,Rb4Li(Se2O7)2,0.060778046,0.663
mp-1198331,Rb4LiH3(SO4)4,0,5.095
mp-557793,Rb4LiZr3H2F19,0,6.1354
mp-1020620,Rb5Li6(BO2)11,0.005257922,4.1483
mp-559477,Rb5LiSi2NiO8,0.017993053,3.8044
mp-607785,Rb6LiNd11Se12(Cl4O9)4,0,3.2922
mp-645405,Rb6LiPr11Se12(Cl4O9)4,0,3.2871
mp-1190412,RbLi(C2N3)2,0.084158118,4.4793
mp-510073,RbLi(H2N)2,0,2.3503
mp-722455,RbLi2(H2N)3,0.006338741,1.9381
mp-23626,RbLi2(IO3)3,0,3.7571
mp-769329,RbLi2B3Sb2O9,0.093487622,2.2755
mp-560518,RbLi2Be2F7,0,7.2125
mp-1192391,RbLi2CdC2O6F,0,3.2753
mp-770633,RbLi2Co2(BO3)3,0.077105882,1.1508
mp-770709,RbLi2Fe2(BO3)3,0.024596516,1.8834
mp-16872,RbLi2Ga2(BO3)3,0.00417305,3.3885
mp-770719,RbLi2Ni2(BO3)3,0.080647136,0.6137
mp-772424,RbLi2V2(BO3)3,0.062517482,2.1206
mp-1195055,RbLi6B2O6F,0.004713201,4.3533
mp-754101,RbLi7(NiO3)2,0.096091483,2.0888
mp-554752,RbLi7(SiO4)2,0,4.718
mp-6787,RbLiB4O7,0,4.8696
mp-650024,RbLiBi2(MoO4)4,0.003613618,2.5914
mp-28237,RbLiBr2,0.004808563,4.322
mp-28243,RbLiCl2,0.004606495,5.1482
mp-18741,RbLiCrO4,0,2.7642
mp-1236071,RbLiCu2H3(SO5)2,0.057158214,0.504
mp-7593,RbLiF2,0.005891684,6.5252
mp-866716,RbLiH12Se3N4,0,0.8006
mp-699447,RbLiH4S2(NO3)2,0.065044808,5.2525
mp-1219622,RbLiMg(BH4)4,0.004985516,6.4948
mp-1040170,RbLiMg30O31,0.085190816,3.047
mp-1219628,RbLiMn(BH4)4,0,2.1089
mp-1101431,RbLiMn3O4,0.036090626,0.723
mp-760023,RbLiMnP3HO10,0.018424931,3.3555
mp-556209,RbLiMoO4,0,4.4196
mp-630867,RbLiNd2(MoO4)4,0.009076285,3.4113
mp-28545,RbLiO,0.001270019,2.2543
mp-8751,RbLiS,0,2.745
mp-9250,RbLiSe,0,2.3089
mp-6211,RbLiSO4,0,5.3933
mp-761134,RbLiV(PO4)2,0.056342645,1.715
mp-18422,RbLiZn2O3,0,1.8536
mp-1219554,RbLiZnS2,0,2.5255
mp-17240,RbNa3Li12(SiO4)4,0,4.589
mp-774749,RbNa3Li12Ti4O16,0,4.3103
mp-560653,RbNaLi6(SiO4)2,0,4.5916
mp-570097,Sr(Li2P)2,0,0.9759
mp-753864,Sr2Li2Nb4O13,0.027410544,1.4216
mp-753817,Sr2Li2NiO4,0.090836958,2.3334
mp-541568,Sr2Li3NbN4,0,2.1148
mp-541569,Sr2Li3TaN4,0,2.1584
mp-1218762,Sr2Li7CuN4,0,0.568
mp-1218822,Sr2LiB10H3O19,0,5.3061
mp-1020647,Sr2LiBeB3O8,0,4.7198
mp-569782,Sr2LiCBr3N2,0,3.9725
mp-1192182,Sr2LiH2N,0.045367065,1.4314
mp-14854,Sr2LiIn(B2O5)2,0.010532221,3.7658
mp-1218768,Sr2LiLaTi4O12,0.058240625,1.8371
mp-756854,Sr2LiNb3O10,0.042790214,2.0804
mp-10556,Sr2LiReN4,0,1.8099
mp-1080625,Sr2LiReO6,0,1.8424
mp-8796,Sr2LiSc(B2O5)2,0.001963663,4.4203
mp-556066,Sr2LiSiO4F,0.015108044,4.7908
mp-979340,Sr2LiTaN3F,0,2.5637
mp-1235062,Sr2LiV2(Si2O7)2,0.084649475,0.6894
mp-761869,Sr3Li3La5O12,0.038642951,3.0223
mp-567371,Sr3Li4(GeN3)2,0,2.0534
mp-1104857,Sr3Li4(SiN3)2,0,2.107
mp-766433,Sr3Li4Nb6O20,0.030523542,1.1984
mp-1208770,Sr3Li6Nb2O11,0,3.3726
mp-1208758,Sr3Li6Ta2O11,0,4.1256
mp-1192357,Sr3LiAs2H,0,1.4556
mp-1218428,Sr3LiBiO6,0,2.1229
mp-1190404,Sr3LiNbO6,0,3.2076
mp-1190151,Sr3LiSbO6,0,3.1732
mp-1190486,Sr3LiTaO6,0,3.791
mp-9723,Sr4Li(BN2)3,0,2.0686
mp-554003,Sr4Li(BO3)3,0.017461012,4.1874
mp-1020725,Sr4Li2B12O23,0.004719955,4.6951
mp-1020592,Sr4Li2Si4N8O,0,2.1827
mp-1203018,Sr4Li2Ta2Al2N8O,0.006130481,2.5814
mp-772076,Sr4Li4Nb5FeO20,0.023345752,1.255
mp-753353,Sr4LiCu(CO5)2,0,1.0264
mp-1236344,Sr4LiMn2(GaO5)2,0.068519921,0.6452
mp-686736,Sr5Li25La7(BiO6)8,0.030261061,1.9255
mp-1199637,Sr8Li2B22H2O43,0.00285143,4.6493
mp-18495,SrLi(B3O5)3,0,5.6482
mp-558219,SrLi(BS2)3,0,2.91
mp-978840,SrLi2(SiN2)2,0,3.244
mp-629430,SrLi2CrN3,0,0.6201
mp-557857,SrLi2Nb2O7,0.010655999,1.6613
mp-1191141,SrLi2SiO4,0,4.6377
mp-558054,SrLi2Ta2O7,0,2.2704
mp-16691,SrLi2Ti6O14,0,2.8389
mp-555089,SrLi4Ca(SiO4)2,0,4.8295
mp-15845,SrLi4N2,0,0.8874
mp-776394,SrLi4NiO4,0.086487758,2.3488
mp-1020627,SrLiAl3N4,0,2.9732
mp-6591,SrLiAlF6,0,7.3154
mp-1101989,SrLiAs,0,1.0323
mp-30456,SrLiBi,0,0.5558
mp-10814,SrLiBO3,0,4.3476
mp-557962,SrLiBS3,0.000848513,2.3922
mp-554131,SrLiCoF6,0.042132915,1.7699
mp-1208634,SrLiCrF6,0,4.3642
mp-676932,SrLiEuTeO6,0.053563879,2.8365
mp-559277,SrLiFeF6,0,4.1239
mp-1208619,SrLiGaF6,0,6.3569
mp-568385,SrLiGaN2,0,1.8413
mp-766205,SrLiLa15(CoO8)4,0.039480816,0.5345
mp-766044,SrLiLa3FeO8,0.011453055,0.7098
mp-753433,SrLiLa3MnO8,0.020087179,1.6633
mp-1218165,SrLiLaTi3O9,0.074899726,1.8409
mp-753719,SrLiNb2O6F,0.032498097,1.7699
mp-13276,SrLiP,0,1.3431
mp-1208633,SrLiPO4,0.023669295,4.4543
mp-1218250,SrLiPrTeO6,0.006126916,3.2928
mp-7756,SrLiSb,0,0.6858
mp-39387,SrLiTa2O6F,0.019688611,3.6165
mp-1173174,SrLiTi4CrO11,0.007640083,2.2734
mp-1208625,SrLiVF6,0,2.6226
mp-759976,SrLiVPO6,0.086531238,1.7167
mp-1218231,SrLiY2(BO3)3,0,4.1234